 Entering Gaussian System, Link 0=g03
 Input=axial1.com
 Output=axial1.log
 Initial command:
 /modfac/apps//g03/l1.exe /work/ddibble/Gau-24197.inp -scrdir=/work/ddibble/
 Entering Link 1 = /modfac/apps//g03/l1.exe PID=     24200.
  
 Copyright (c) 1988,1990,1992,1993,1995,1998,2003,2004,2007, Gaussian, Inc.
                  All Rights Reserved.
  
 This is the Gaussian(R) 03 program.  It is based on the
 the Gaussian(R) 98 system (copyright 1998, Gaussian, Inc.),
 the Gaussian(R) 94 system (copyright 1995, Gaussian, Inc.),
 the Gaussian 92(TM) system (copyright 1992, Gaussian, Inc.),
 the Gaussian 90(TM) system (copyright 1990, Gaussian, Inc.),
 the Gaussian 88(TM) system (copyright 1988, Gaussian, Inc.),
 the Gaussian 86(TM) system (copyright 1986, Carnegie Mellon
 University), and the Gaussian 82(TM) system (copyright 1983,
 Carnegie Mellon University). Gaussian is a federally registered
 trademark of Gaussian, Inc.
  
 This software contains proprietary and confidential information,
 including trade secrets, belonging to Gaussian, Inc.
  
 This software is provided under written license and may be
 used, copied, transmitted, or stored only in accord with that
 written license.
  
 The following legend is applicable only to US Government
 contracts under FAR:
  
                    RESTRICTED RIGHTS LEGEND
  
 Use, reproduction and disclosure by the US Government is
 subject to restrictions as set forth in subparagraphs (a)
 and (c) of the Commercial Computer Software - Restricted
 Rights clause in FAR 52.227-19.
  
 Gaussian, Inc.
 340 Quinnipiac St., Bldg. 40, Wallingford CT 06492
  
  
 ---------------------------------------------------------------
 Warning -- This program may not be used in any manner that
 competes with the business of Gaussian, Inc. or will provide
 assistance to any competitor of Gaussian, Inc.  The licensee
 of this program is prohibited from giving any competitor of
 Gaussian, Inc. access to this program.  By using this program,
 the user acknowledges that Gaussian, Inc. is engaged in the
 business of creating and licensing software in the field of
 computational chemistry and represents and warrants to the
 licensee that it is not a competitor of Gaussian, Inc. and that
 it will not use this program in any manner prohibited above.
 ---------------------------------------------------------------
  

 Cite this work as:
 Gaussian 03, Revision E.01,
 M. J. Frisch, G. W. Trucks, H. B. Schlegel, G. E. Scuseria, 
 M. A. Robb, J. R. Cheeseman, J. A. Montgomery, Jr., T. Vreven, 
 K. N. Kudin, J. C. Burant, J. M. Millam, S. S. Iyengar, J. Tomasi, 
 V. Barone, B. Mennucci, M. Cossi, G. Scalmani, N. Rega, 
 G. A. Petersson, H. Nakatsuji, M. Hada, M. Ehara, K. Toyota, 
 R. Fukuda, J. Hasegawa, M. Ishida, T. Nakajima, Y. Honda, O. Kitao, 
 H. Nakai, M. Klene, X. Li, J. E. Knox, H. P. Hratchian, J. B. Cross, 
 V. Bakken, C. Adamo, J. Jaramillo, R. Gomperts, R. E. Stratmann, 
 O. Yazyev, A. J. Austin, R. Cammi, C. Pomelli, J. W. Ochterski, 
 P. Y. Ayala, K. Morokuma, G. A. Voth, P. Salvador, J. J. Dannenberg, 
 V. G. Zakrzewski, S. Dapprich, A. D. Daniels, M. C. Strain, 
 O. Farkas, D. K. Malick, A. D. Rabuck, K. Raghavachari, 
 J. B. Foresman, J. V. Ortiz, Q. Cui, A. G. Baboul, S. Clifford, 
 J. Cioslowski, B. B. Stefanov, G. Liu, A. Liashenko, P. Piskorz, 
 I. Komaromi, R. L. Martin, D. J. Fox, T. Keith, M. A. Al-Laham, 
 C. Y. Peng, A. Nanayakkara, M. Challacombe, P. M. W. Gill, 
 B. Johnson, W. Chen, M. W. Wong, C. Gonzalez, and J. A. Pople, 
 Gaussian, Inc., Wallingford CT, 2004.
 
 ******************************************
 Gaussian 03:  EM64L-G03RevE.01 11-Sep-2007
                12-May-2010 
 ******************************************
 %chk=axial1.chk
 %mem=1000MB
 %NProcShared=2
 Will use up to    2 processors via shared memory.
 Default route:  MaxDisk=60GB
 -------------------------------------------
 # opt freq hf/6-311g(d,p) geom=connectivity
 -------------------------------------------
 1/18=20,38=1,57=2/1,3;
 2/9=110,17=6,18=5,40=1/2;
 3/5=4,6=6,7=101,11=9,16=1,25=1,30=1/1,2,3;
 4//1;
 5/5=2,38=5/2;
 6/7=2,8=2,9=2,10=2,28=1/1;
 7//1,2,3,16;
 1/18=20/3(3);
 2/9=110/2;
 6/7=2,8=2,9=2,10=2,19=2,28=1/1;
 99//99;
 2/9=110/2;
 3/5=4,6=6,7=101,11=9,16=1,25=1,30=1/1,2,3;
 4/5=5,16=3/1;
 5/5=2,38=5/2;
 7//1,2,3,16;
 1/18=20/3(-5);
 2/9=110/2;
 6/7=2,8=2,9=2,10=2,19=2,28=1/1;
 99/9=1/99;
 -------------------
 Title Card Required
 -------------------
 Symbolic Z-matrix:
 Charge =  1 Multiplicity = 1
 C
 C                    1    B1
 C                    2    B2       1    A1
 C                    3    B3       2    A2       1    D1       0
 C                    4    B4       3    A3       2    D2       0
 C                    5    B5       4    A4       3    D3       0
 H                    2    B6       1    A5       6    D4       0
 H                    5    B7       4    A6       3    D5       0
 H                    6    B8       5    A7       4    D6       0
 N                    3    B9       2    A8       1    D7       0
 O                    10   B10      3    A9       2    D8       0
 O                    10   B11      3    A10      2    D9       0
 N                    1    B12      2    A11      3    D10      0
 O                    13   B13      1    A12      2    D11      0
 O                    13   B14      1    A13      2    D12      0
 N                    4    B15      3    A14      2    D13      0
 H                    16   B16      4    A15      3    D14      0
 N                    16   B17      4    A16      3    D15      0
 C                    18   B18      16   A17      4    D16      0
 C                    19   B19      18   A18      16   D17      0
 H                    20   B20      19   A19      18   D18      0
 H                    20   B21      19   A20      18   D19      0
 C                    19   B22      18   A21      16   D20      0
 H                    23   B23      19   A22      18   D21      0
 H                    23   B24      19   A23      18   D22      0
 C                    23   B25      19   A24      18   D23      0
 H                    26   B26      23   A25      19   D24      0
 H                    26   B27      23   A26      19   D25      0
 C                    20   B28      19   A27      18   D26      0
 H                    29   B29      20   A28      19   D27      0
 H                    29   B30      20   A29      19   D28      0
 C                    26   B31      23   A30      19   D29      0
 H                    32   B32      26   A31      23   D30      0
 O                    32   B33      26   A32      23   D31      0
 C                    34   B34      32   A33      26   D32      0
 H                    35   B35      34   A34      32   D33      0
 H                    35   B36      34   A35      32   D34      0
 C                    35   B37      34   A36      32   D35      0
 C                    38   B38      35   A37      34   D36      0
 C                    38   B39      35   A38      34   D37      0
 C                    39   B40      38   A39      35   D38      0
 H                    39   B41      38   A40      35   D39      0
 C                    40   B42      38   A41      35   D40      0
 H                    40   B43      38   A42      35   D41      0
 C                    41   B44      39   A43      38   D42      0
 H                    41   B45      39   A44      38   D43      0
 H                    43   B46      40   A45      38   D44      0
 H                    45   B47      41   A46      39   D45      0
 H                    18   B48      16   A47      4    D46      0
       Variables:
  B1                    1.36588                  
  B2                    1.37909                  
  B3                    1.40395                  
  B4                    1.39473                  
  B5                    1.37294                  
  B6                    1.06681                  
  B7                    1.0675                   
  B8                    1.06809                  
  B9                    1.44308                  
  B10                   1.26709                  
  B11                   1.22641                  
  B12                   1.44232                  
  B13                   1.24277                  
  B14                   1.23996                  
  B15                   1.37982                  
  B16                   1.00802                  
  B17                   1.39926                  
  B18                   1.29031                  
  B19                   1.49179                  
  B20                   1.08489                  
  B21                   1.0764                   
  B22                   1.49586                  
  B23                   1.08192                  
  B24                   1.08417                  
  B25                   1.55352                  
  B26                   1.08015                  
  B27                   1.08301                  
  B28                   1.55539                  
  B29                   1.08293                  
  B30                   1.08164                  
  B31                   1.52876                  
  B32                   1.08098                  
  B33                   1.43935                  
  B34                   1.45541                  
  B35                   1.07971                  
  B36                   1.08346                  
  B37                   1.51049                  
  B38                   1.38346                  
  B39                   1.38841                  
  B40                   1.3865                   
  B41                   1.07341                  
  B42                   1.3807                   
  B43                   1.07212                  
  B44                   1.38189                  
  B45                   1.07141                  
  B46                   1.0717                   
  B47                   1.07136                  
  B48                   1.00868                  
  A1                  119.83897                  
  A2                  120.90319                  
  A3                  117.62785                  
  A4                  121.10574                  
  A5                  120.31922                  
  A6                  119.7401                   
  A7                  121.25134                  
  A8                  116.80297                  
  A9                  118.28768                  
  A10                 117.91619                  
  A11                 119.58478                  
  A12                 116.6175                   
  A13                 117.00849                  
  A14                 120.90614                  
  A15                 118.25679                  
  A16                 120.15092                  
  A17                 123.03735                  
  A18                 123.30083                  
  A19                 106.43268                  
  A20                 111.69128                  
  A21                 119.64827                  
  A22                 112.04632                  
  A23                 107.25745                  
  A24                 109.55537                  
  A25                 108.0853                   
  A26                 111.06097                  
  A27                 109.73819                  
  A28                 110.84554                  
  A29                 107.59791                  
  A30                 108.70811                  
  A31                 110.17902                  
  A32                 105.74778                  
  A33                 116.42293                  
  A34                 104.54416                  
  A35                 110.14563                  
  A36                 111.5549                   
  A37                 121.21888                  
  A38                 119.29556                  
  A39                 120.28046                  
  A40                 120.05245                  
  A41                 120.32236                  
  A42                 119.33355                  
  A43                 120.02666                  
  A44                 119.84211                  
  A45                 120.02357                  
  A46                 120.08476                  
  A47                 116.26368                  
  D1                   -0.25718                  
  D2                    0.29617                  
  D3                   -0.11114                  
  D4                  179.83245                  
  D5                 -179.53927                  
  D6                 -179.92677                  
  D7                  179.40819                  
  D8                 -179.1292                   
  D9                    0.80306                  
  D10                -179.96927                  
  D11                -180.                       
  D12                  -0.05058                  
  D13                -179.00772                  
  D14                  -7.98008                  
  D15                -167.43872                  
  D16                -114.98019                  
  D17                   3.43704                  
  D18                -116.77093                  
  D19                   3.37396                  
  D20                -176.08178                  
  D21                  -2.94615                  
  D22                 117.5746                   
  D23                -127.54205                  
  D24                -174.57403                  
  D25                  66.25311                  
  D26                 128.41486                  
  D27                 -67.60851                  
  D28                 174.57654                  
  D29                 -55.61878                  
  D30                -174.72591                  
  D31                 -54.85573                  
  D32                -147.19086                  
  D33                -173.66419                  
  D34                 -57.07745                  
  D35                  66.18539                  
  D36                -133.82376                  
  D37                  46.92304                  
  D38                -178.77734                  
  D39                   0.73206                  
  D40                 178.98272                  
  D41                  -0.3767                   
  D42                  -0.40682                  
  D43                 179.63615                  
  D44                -179.47348                  
  D45                 179.92825                  
  D46                  69.96627                  
 

 GradGradGradGradGradGradGradGradGradGradGradGradGradGradGradGradGradGrad
 Berny optimization.
 Initialization pass.
                           ----------------------------
                           !    Initial Parameters    !
                           ! (Angstroms and Degrees)  !
 --------------------------                            --------------------------
 ! Name  Definition              Value          Derivative Info.                !
 --------------------------------------------------------------------------------
 ! R1    R(1,2)                  1.3659         estimate D2E/DX2                !
 ! R2    R(1,6)                  1.3793         estimate D2E/DX2                !
 ! R3    R(1,13)                 1.4423         estimate D2E/DX2                !
 ! R4    R(2,3)                  1.3791         estimate D2E/DX2                !
 ! R5    R(2,7)                  1.0668         estimate D2E/DX2                !
 ! R6    R(3,4)                  1.404          estimate D2E/DX2                !
 ! R7    R(3,10)                 1.4431         estimate D2E/DX2                !
 ! R8    R(4,5)                  1.3947         estimate D2E/DX2                !
 ! R9    R(4,16)                 1.3798         estimate D2E/DX2                !
 ! R10   R(5,6)                  1.3729         estimate D2E/DX2                !
 ! R11   R(5,8)                  1.0675         estimate D2E/DX2                !
 ! R12   R(6,9)                  1.0681         estimate D2E/DX2                !
 ! R13   R(10,11)                1.2671         estimate D2E/DX2                !
 ! R14   R(10,12)                1.2264         estimate D2E/DX2                !
 ! R15   R(11,17)                1.7748         estimate D2E/DX2                !
 ! R16   R(13,14)                1.2428         estimate D2E/DX2                !
 ! R17   R(13,15)                1.24           estimate D2E/DX2                !
 ! R18   R(16,17)                1.008          estimate D2E/DX2                !
 ! R19   R(16,18)                1.3993         estimate D2E/DX2                !
 ! R20   R(18,19)                1.2903         estimate D2E/DX2                !
 ! R21   R(18,49)                1.0087         estimate D2E/DX2                !
 ! R22   R(19,20)                1.4918         estimate D2E/DX2                !
 ! R23   R(19,23)                1.4959         estimate D2E/DX2                !
 ! R24   R(20,21)                1.0849         estimate D2E/DX2                !
 ! R25   R(20,22)                1.0764         estimate D2E/DX2                !
 ! R26   R(20,29)                1.5554         estimate D2E/DX2                !
 ! R27   R(23,24)                1.0819         estimate D2E/DX2                !
 ! R28   R(23,25)                1.0842         estimate D2E/DX2                !
 ! R29   R(23,26)                1.5535         estimate D2E/DX2                !
 ! R30   R(26,27)                1.0801         estimate D2E/DX2                !
 ! R31   R(26,28)                1.083          estimate D2E/DX2                !
 ! R32   R(26,32)                1.5288         estimate D2E/DX2                !
 ! R33   R(29,30)                1.0829         estimate D2E/DX2                !
 ! R34   R(29,31)                1.0816         estimate D2E/DX2                !
 ! R35   R(29,32)                1.5315         estimate D2E/DX2                !
 ! R36   R(32,33)                1.081          estimate D2E/DX2                !
 ! R37   R(32,34)                1.4393         estimate D2E/DX2                !
 ! R38   R(34,35)                1.4554         estimate D2E/DX2                !
 ! R39   R(35,36)                1.0797         estimate D2E/DX2                !
 ! R40   R(35,37)                1.0835         estimate D2E/DX2                !
 ! R41   R(35,38)                1.5105         estimate D2E/DX2                !
 ! R42   R(38,39)                1.3835         estimate D2E/DX2                !
 ! R43   R(38,40)                1.3884         estimate D2E/DX2                !
 ! R44   R(39,41)                1.3865         estimate D2E/DX2                !
 ! R45   R(39,42)                1.0734         estimate D2E/DX2                !
 ! R46   R(40,43)                1.3807         estimate D2E/DX2                !
 ! R47   R(40,44)                1.0721         estimate D2E/DX2                !
 ! R48   R(41,45)                1.3819         estimate D2E/DX2                !
 ! R49   R(41,46)                1.0714         estimate D2E/DX2                !
 ! R50   R(43,45)                1.387          estimate D2E/DX2                !
 ! R51   R(43,47)                1.0717         estimate D2E/DX2                !
 ! R52   R(45,48)                1.0714         estimate D2E/DX2                !
 ! A1    A(2,1,6)              120.682          estimate D2E/DX2                !
 ! A2    A(2,1,13)             119.5848         estimate D2E/DX2                !
 ! A3    A(6,1,13)             119.7332         estimate D2E/DX2                !
 ! A4    A(1,2,3)              119.839          estimate D2E/DX2                !
 ! A5    A(1,2,7)              120.3192         estimate D2E/DX2                !
 ! A6    A(3,2,7)              119.8415         estimate D2E/DX2                !
 ! A7    A(2,3,4)              120.9032         estimate D2E/DX2                !
 ! A8    A(2,3,10)             116.803          estimate D2E/DX2                !
 ! A9    A(4,3,10)             122.2929         estimate D2E/DX2                !
 ! A10   A(3,4,5)              117.6279         estimate D2E/DX2                !
 ! A11   A(3,4,16)             120.9061         estimate D2E/DX2                !
 ! A12   A(5,4,16)             121.4622         estimate D2E/DX2                !
 ! A13   A(4,5,6)              121.1057         estimate D2E/DX2                !
 ! A14   A(4,5,8)              119.7401         estimate D2E/DX2                !
 ! A15   A(6,5,8)              119.1517         estimate D2E/DX2                !
 ! A16   A(1,6,5)              119.8415         estimate D2E/DX2                !
 ! A17   A(1,6,9)              118.9069         estimate D2E/DX2                !
 ! A18   A(5,6,9)              121.2513         estimate D2E/DX2                !
 ! A19   A(3,10,11)            118.2877         estimate D2E/DX2                !
 ! A20   A(3,10,12)            117.9162         estimate D2E/DX2                !
 ! A21   A(11,10,12)           123.7961         estimate D2E/DX2                !
 ! A22   A(1,13,14)            116.6175         estimate D2E/DX2                !
 ! A23   A(1,13,15)            117.0085         estimate D2E/DX2                !
 ! A24   A(14,13,15)           126.374          estimate D2E/DX2                !
 ! A25   A(4,16,17)            118.2568         estimate D2E/DX2                !
 ! A26   A(4,16,18)            120.1509         estimate D2E/DX2                !
 ! A27   A(17,16,18)           118.3883         estimate D2E/DX2                !
 ! A28   A(16,18,19)           123.0374         estimate D2E/DX2                !
 ! A29   A(16,18,49)           116.2637         estimate D2E/DX2                !
 ! A30   A(19,18,49)           120.5126         estimate D2E/DX2                !
 ! A31   A(18,19,20)           123.3008         estimate D2E/DX2                !
 ! A32   A(18,19,23)           119.6483         estimate D2E/DX2                !
 ! A33   A(20,19,23)           117.0492         estimate D2E/DX2                !
 ! A34   A(19,20,21)           106.4327         estimate D2E/DX2                !
 ! A35   A(19,20,22)           111.6913         estimate D2E/DX2                !
 ! A36   A(19,20,29)           109.7382         estimate D2E/DX2                !
 ! A37   A(21,20,22)           110.0604         estimate D2E/DX2                !
 ! A38   A(21,20,29)           106.46           estimate D2E/DX2                !
 ! A39   A(22,20,29)           112.1687         estimate D2E/DX2                !
 ! A40   A(19,23,24)           112.0463         estimate D2E/DX2                !
 ! A41   A(19,23,25)           107.2575         estimate D2E/DX2                !
 ! A42   A(19,23,26)           109.5554         estimate D2E/DX2                !
 ! A43   A(24,23,25)           109.7654         estimate D2E/DX2                !
 ! A44   A(24,23,26)           111.7325         estimate D2E/DX2                !
 ! A45   A(25,23,26)           106.2215         estimate D2E/DX2                !
 ! A46   A(23,26,27)           108.0853         estimate D2E/DX2                !
 ! A47   A(23,26,28)           111.061          estimate D2E/DX2                !
 ! A48   A(23,26,32)           108.7081         estimate D2E/DX2                !
 ! A49   A(27,26,28)           108.7145         estimate D2E/DX2                !
 ! A50   A(27,26,32)           109.653          estimate D2E/DX2                !
 ! A51   A(28,26,32)           110.5761         estimate D2E/DX2                !
 ! A52   A(20,29,30)           110.8455         estimate D2E/DX2                !
 ! A53   A(20,29,31)           107.5979         estimate D2E/DX2                !
 ! A54   A(20,29,32)           109.2172         estimate D2E/DX2                !
 ! A55   A(30,29,31)           107.9436         estimate D2E/DX2                !
 ! A56   A(30,29,32)           110.2987         estimate D2E/DX2                !
 ! A57   A(31,29,32)           110.902          estimate D2E/DX2                !
 ! A58   A(26,32,29)           110.1163         estimate D2E/DX2                !
 ! A59   A(26,32,33)           110.179          estimate D2E/DX2                !
 ! A60   A(26,32,34)           105.7478         estimate D2E/DX2                !
 ! A61   A(29,32,33)           111.0754         estimate D2E/DX2                !
 ! A62   A(29,32,34)           108.7064         estimate D2E/DX2                !
 ! A63   A(33,32,34)           110.8731         estimate D2E/DX2                !
 ! A64   A(32,34,35)           116.4229         estimate D2E/DX2                !
 ! A65   A(34,35,36)           104.5442         estimate D2E/DX2                !
 ! A66   A(34,35,37)           110.1456         estimate D2E/DX2                !
 ! A67   A(34,35,38)           111.5549         estimate D2E/DX2                !
 ! A68   A(36,35,37)           108.676          estimate D2E/DX2                !
 ! A69   A(36,35,38)           111.0949         estimate D2E/DX2                !
 ! A70   A(37,35,38)           110.633          estimate D2E/DX2                !
 ! A71   A(35,38,39)           121.2189         estimate D2E/DX2                !
 ! A72   A(35,38,40)           119.2956         estimate D2E/DX2                !
 ! A73   A(39,38,40)           119.4814         estimate D2E/DX2                !
 ! A74   A(38,39,41)           120.2805         estimate D2E/DX2                !
 ! A75   A(38,39,42)           120.0524         estimate D2E/DX2                !
 ! A76   A(41,39,42)           119.6653         estimate D2E/DX2                !
 ! A77   A(38,40,43)           120.3224         estimate D2E/DX2                !
 ! A78   A(38,40,44)           119.3335         estimate D2E/DX2                !
 ! A79   A(43,40,44)           120.341          estimate D2E/DX2                !
 ! A80   A(39,41,45)           120.0267         estimate D2E/DX2                !
 ! A81   A(39,41,46)           119.8421         estimate D2E/DX2                !
 ! A82   A(45,41,46)           120.1312         estimate D2E/DX2                !
 ! A83   A(40,43,45)           120.0215         estimate D2E/DX2                !
 ! A84   A(40,43,47)           120.0236         estimate D2E/DX2                !
 ! A85   A(45,43,47)           119.953          estimate D2E/DX2                !
 ! A86   A(41,45,43)           119.8661         estimate D2E/DX2                !
 ! A87   A(41,45,48)           120.0848         estimate D2E/DX2                !
 ! A88   A(43,45,48)           120.0488         estimate D2E/DX2                !
 ! D1    D(6,1,2,3)              0.0258         estimate D2E/DX2                !
 ! D2    D(6,1,2,7)            179.8325         estimate D2E/DX2                !
 ! D3    D(13,1,2,3)          -179.9693         estimate D2E/DX2                !
 ! D4    D(13,1,2,7)            -0.1626         estimate D2E/DX2                !
 ! D5    D(2,1,6,5)              0.1581         estimate D2E/DX2                !
 ! D6    D(2,1,6,9)            179.9772         estimate D2E/DX2                !
 ! D7    D(13,1,6,5)          -179.8468         estimate D2E/DX2                !
 ! D8    D(13,1,6,9)            -0.0277         estimate D2E/DX2                !
 ! D9    D(2,1,13,14)         -180.0            estimate D2E/DX2                !
 ! D10   D(2,1,13,15)           -0.0506         estimate D2E/DX2                !
 ! D11   D(6,1,13,14)            0.0049         estimate D2E/DX2                !
 ! D12   D(6,1,13,15)          179.9543         estimate D2E/DX2                !
 ! D13   D(1,2,3,4)             -0.2572         estimate D2E/DX2                !
 ! D14   D(1,2,3,10)           179.4082         estimate D2E/DX2                !
 ! D15   D(7,2,3,4)            179.9352         estimate D2E/DX2                !
 ! D16   D(7,2,3,10)            -0.3994         estimate D2E/DX2                !
 ! D17   D(2,3,4,5)              0.2962         estimate D2E/DX2                !
 ! D18   D(2,3,4,16)          -179.0077         estimate D2E/DX2                !
 ! D19   D(10,3,4,5)          -179.3505         estimate D2E/DX2                !
 ! D20   D(10,3,4,16)            1.3456         estimate D2E/DX2                !
 ! D21   D(2,3,10,11)         -179.1292         estimate D2E/DX2                !
 ! D22   D(2,3,10,12)            0.8031         estimate D2E/DX2                !
 ! D23   D(4,3,10,11)            0.5311         estimate D2E/DX2                !
 ! D24   D(4,3,10,12)         -179.5366         estimate D2E/DX2                !
 ! D25   D(3,4,5,6)             -0.1111         estimate D2E/DX2                !
 ! D26   D(3,4,5,8)           -179.5393         estimate D2E/DX2                !
 ! D27   D(16,4,5,6)           179.1887         estimate D2E/DX2                !
 ! D28   D(16,4,5,8)            -0.2395         estimate D2E/DX2                !
 ! D29   D(3,4,16,17)           -7.9801         estimate D2E/DX2                !
 ! D30   D(3,4,16,18)         -167.4387         estimate D2E/DX2                !
 ! D31   D(5,4,16,17)          172.743          estimate D2E/DX2                !
 ! D32   D(5,4,16,18)           13.2843         estimate D2E/DX2                !
 ! D33   D(4,5,6,1)             -0.112          estimate D2E/DX2                !
 ! D34   D(4,5,6,9)           -179.9268         estimate D2E/DX2                !
 ! D35   D(8,5,6,1)            179.3194         estimate D2E/DX2                !
 ! D36   D(8,5,6,9)             -0.4953         estimate D2E/DX2                !
 ! D37   D(4,16,18,19)        -114.9802         estimate D2E/DX2                !
 ! D38   D(4,16,18,49)          69.9663         estimate D2E/DX2                !
 ! D39   D(17,16,18,19)         85.5877         estimate D2E/DX2                !
 ! D40   D(17,16,18,49)        -89.4658         estimate D2E/DX2                !
 ! D41   D(16,18,19,20)          3.437          estimate D2E/DX2                !
 ! D42   D(16,18,19,23)       -176.0818         estimate D2E/DX2                !
 ! D43   D(49,18,19,20)        178.2877         estimate D2E/DX2                !
 ! D44   D(49,18,19,23)         -1.2312         estimate D2E/DX2                !
 ! D45   D(18,19,20,21)       -116.7709         estimate D2E/DX2                !
 ! D46   D(18,19,20,22)          3.374          estimate D2E/DX2                !
 ! D47   D(18,19,20,29)        128.4149         estimate D2E/DX2                !
 ! D48   D(23,19,20,21)         62.7595         estimate D2E/DX2                !
 ! D49   D(23,19,20,22)       -177.0956         estimate D2E/DX2                !
 ! D50   D(23,19,20,29)        -52.0547         estimate D2E/DX2                !
 ! D51   D(18,19,23,24)         -2.9462         estimate D2E/DX2                !
 ! D52   D(18,19,23,25)        117.5746         estimate D2E/DX2                !
 ! D53   D(18,19,23,26)       -127.542          estimate D2E/DX2                !
 ! D54   D(20,19,23,24)        177.5054         estimate D2E/DX2                !
 ! D55   D(20,19,23,25)        -61.9738         estimate D2E/DX2                !
 ! D56   D(20,19,23,26)         52.9095         estimate D2E/DX2                !
 ! D57   D(19,20,29,30)        -67.6085         estimate D2E/DX2                !
 ! D58   D(19,20,29,31)        174.5765         estimate D2E/DX2                !
 ! D59   D(19,20,29,32)         54.1168         estimate D2E/DX2                !
 ! D60   D(21,20,29,30)        177.5947         estimate D2E/DX2                !
 ! D61   D(21,20,29,31)         59.7798         estimate D2E/DX2                !
 ! D62   D(21,20,29,32)        -60.68           estimate D2E/DX2                !
 ! D63   D(22,20,29,30)         57.1569         estimate D2E/DX2                !
 ! D64   D(22,20,29,31)        -60.658          estimate D2E/DX2                !
 ! D65   D(22,20,29,32)        178.8822         estimate D2E/DX2                !
 ! D66   D(19,23,26,27)       -174.574          estimate D2E/DX2                !
 ! D67   D(19,23,26,28)         66.2531         estimate D2E/DX2                !
 ! D68   D(19,23,26,32)        -55.6188         estimate D2E/DX2                !
 ! D69   D(24,23,26,27)         60.6479         estimate D2E/DX2                !
 ! D70   D(24,23,26,28)        -58.5249         estimate D2E/DX2                !
 ! D71   D(24,23,26,32)        179.6032         estimate D2E/DX2                !
 ! D72   D(25,23,26,27)        -59.029          estimate D2E/DX2                !
 ! D73   D(25,23,26,28)       -178.2018         estimate D2E/DX2                !
 ! D74   D(25,23,26,32)         59.9263         estimate D2E/DX2                !
 ! D75   D(23,26,32,29)         62.4126         estimate D2E/DX2                !
 ! D76   D(23,26,32,33)       -174.7259         estimate D2E/DX2                !
 ! D77   D(23,26,32,34)        -54.8557         estimate D2E/DX2                !
 ! D78   D(27,26,32,29)       -179.6207         estimate D2E/DX2                !
 ! D79   D(27,26,32,33)        -56.7591         estimate D2E/DX2                !
 ! D80   D(27,26,32,34)         63.1111         estimate D2E/DX2                !
 ! D81   D(28,26,32,29)        -59.7542         estimate D2E/DX2                !
 ! D82   D(28,26,32,33)         63.1074         estimate D2E/DX2                !
 ! D83   D(28,26,32,34)       -177.0225         estimate D2E/DX2                !
 ! D84   D(20,29,32,26)        -61.7218         estimate D2E/DX2                !
 ! D85   D(20,29,32,33)        175.9443         estimate D2E/DX2                !
 ! D86   D(20,29,32,34)         53.6934         estimate D2E/DX2                !
 ! D87   D(30,29,32,26)         60.3333         estimate D2E/DX2                !
 ! D88   D(30,29,32,33)        -62.0006         estimate D2E/DX2                !
 ! D89   D(30,29,32,34)        175.7485         estimate D2E/DX2                !
 ! D90   D(31,29,32,26)        179.8633         estimate D2E/DX2                !
 ! D91   D(31,29,32,33)         57.5294         estimate D2E/DX2                !
 ! D92   D(31,29,32,34)        -64.7214         estimate D2E/DX2                !
 ! D93   D(26,32,34,35)       -147.1909         estimate D2E/DX2                !
 ! D94   D(29,32,34,35)         94.5962         estimate D2E/DX2                !
 ! D95   D(33,32,34,35)        -27.7773         estimate D2E/DX2                !
 ! D96   D(32,34,35,36)       -173.6642         estimate D2E/DX2                !
 ! D97   D(32,34,35,37)        -57.0775         estimate D2E/DX2                !
 ! D98   D(32,34,35,38)         66.1854         estimate D2E/DX2                !
 ! D99   D(34,35,38,39)       -133.8238         estimate D2E/DX2                !
 ! D100  D(34,35,38,40)         46.923          estimate D2E/DX2                !
 ! D101  D(36,35,38,39)        109.9582         estimate D2E/DX2                !
 ! D102  D(36,35,38,40)        -69.295          estimate D2E/DX2                !
 ! D103  D(37,35,38,39)        -10.8386         estimate D2E/DX2                !
 ! D104  D(37,35,38,40)        169.9082         estimate D2E/DX2                !
 ! D105  D(35,38,39,41)       -178.7773         estimate D2E/DX2                !
 ! D106  D(35,38,39,42)          0.7321         estimate D2E/DX2                !
 ! D107  D(40,38,39,41)          0.4745         estimate D2E/DX2                !
 ! D108  D(40,38,39,42)        179.9839         estimate D2E/DX2                !
 ! D109  D(35,38,40,43)        178.9827         estimate D2E/DX2                !
 ! D110  D(35,38,40,44)         -0.3767         estimate D2E/DX2                !
 ! D111  D(39,38,40,43)         -0.2836         estimate D2E/DX2                !
 ! D112  D(39,38,40,44)       -179.643          estimate D2E/DX2                !
 ! D113  D(38,39,41,45)         -0.4068         estimate D2E/DX2                !
 ! D114  D(38,39,41,46)        179.6361         estimate D2E/DX2                !
 ! D115  D(42,39,41,45)       -179.9181         estimate D2E/DX2                !
 ! D116  D(42,39,41,46)          0.1248         estimate D2E/DX2                !
 ! D117  D(38,40,43,45)          0.0241         estimate D2E/DX2                !
 ! D118  D(38,40,43,47)       -179.4735         estimate D2E/DX2                !
 ! D119  D(44,40,43,45)        179.377          estimate D2E/DX2                !
 ! D120  D(44,40,43,47)         -0.1206         estimate D2E/DX2                !
 ! D121  D(39,41,45,43)          0.144          estimate D2E/DX2                !
 ! D122  D(39,41,45,48)        179.9282         estimate D2E/DX2                !
 ! D123  D(46,41,45,43)       -179.8991         estimate D2E/DX2                !
 ! D124  D(46,41,45,48)         -0.1148         estimate D2E/DX2                !
 ! D125  D(40,43,45,41)          0.0464         estimate D2E/DX2                !
 ! D126  D(40,43,45,48)       -179.738          estimate D2E/DX2                !
 ! D127  D(47,43,45,41)        179.5443         estimate D2E/DX2                !
 ! D128  D(47,43,45,48)         -0.2401         estimate D2E/DX2                !
 --------------------------------------------------------------------------------
 Trust Radius=3.00D-01 FncErr=1.00D-07 GrdErr=1.00D-07
 Number of steps in this run= 278 maximum allowed number of steps= 294.
 GradGradGradGradGradGradGradGradGradGradGradGradGradGradGradGradGradGrad

                          Input orientation:                          
 ---------------------------------------------------------------------
 Center     Atomic     Atomic              Coordinates (Angstroms)
 Number     Number      Type              X           Y           Z
 ---------------------------------------------------------------------
    1          6             0        0.000000    0.000000    0.000000
    2          6             0        0.000000    0.000000    1.365880
    3          6             0        1.196263    0.000000    2.052067
    4          6             0        2.421107   -0.005407    1.365909
    5          6             0        2.381450   -0.004359   -0.028256
    6          6             0        1.186232   -0.000534   -0.703829
    7          1             0       -0.920890    0.003108    1.904422
    8          1             0        3.292837   -0.015808   -0.583954
    9          1             0        1.153146   -0.000891   -1.771403
   10          7             0        1.119867    0.013304    3.493067
   11          8             0        2.202233    0.030600    4.151632
   12          8             0        0.007334    0.008457    4.009141
   13          7             0       -1.254275    0.000673   -0.712087
   14          8             0       -1.189943    0.000638   -1.953192
   15          8             0       -2.289372    0.000253   -0.029392
   16          7             0        3.617903   -0.025910    2.052321
   17          1             0        3.595627    0.086375    3.053815
   18          7             0        4.817934    0.231962    1.380501
   19          6             0        5.747743   -0.651122    1.237245
   20          6             0        5.616833   -2.061592    1.705082
   21          1             0        6.376281   -2.204086    2.466603
   22          1             0        4.641023   -2.255523    2.115952
   23          6             0        7.036994   -0.268584    0.582189
   24          1             0        7.028459    0.756674    0.236751
   25          1             0        7.822955   -0.401332    1.317083
   26          6             0        7.348982   -1.261577   -0.571086
   27          1             0        8.326730   -1.023283   -0.963440
   28          1             0        6.622755   -1.171404   -1.369449
   29          6             0        5.968822   -3.034934    0.544067
   30          1             0        5.226546   -2.980825   -0.242594
   31          1             0        5.957178   -4.039576    0.944684
   32          6             0        7.353640   -2.682432   -0.006958
   33          1             0        7.659119   -3.385312   -0.769298
   34          8             0        8.293849   -2.667002    1.082761
   35          6             0        9.037811   -3.896392    1.313720
   36          1             0        9.587660   -3.713494    2.224760
   37          1             0        8.354374   -4.720402    1.480453
   38          6             0        9.972057   -4.203393    0.167201
   39          6             0       10.047620   -5.473590   -0.375801
   40          6             0       10.780168   -3.194488   -0.339495
   41          6             0       10.930372   -5.739871   -1.411280
   42          1             0        9.427256   -6.260514    0.009061
   43          6             0       11.657042   -3.456750   -1.373253
   44          1             0       10.723831   -2.212428    0.086907
   45          6             0       11.733725   -4.732794   -1.911306
   46          1             0       10.987285   -6.727523   -1.822659
   47          1             0       12.284647   -2.676440   -1.755059
   48          1             0       12.416986   -4.937789   -2.710640
   49          1             0        4.961183    1.181282    1.071126
 ---------------------------------------------------------------------
                    Distance matrix (angstroms):
                    1          2          3          4          5
     1  C    0.000000
     2  C    1.365880   0.000000
     3  C    2.375295   1.379094   0.000000
     4  C    2.779837   2.421113   1.403953   0.000000
     5  C    2.381622   2.759518   2.394250   1.394730   0.000000
     6  C    1.379319   2.385549   2.755915   2.410136   1.372939
     7  H    2.115389   1.066806   2.122297   3.385116   3.826323
     8  H    3.344253   3.826862   3.368157   2.135881   1.067500
     9  H    2.113673   3.342498   3.823713   3.383854   2.132441
    10  N    3.668214   2.403997   1.443084   2.493667   3.740537
    11  O    4.699661   3.551222   2.328322   2.794541   4.183875
    12  O    4.009156   2.643284   2.289926   3.579548   4.683713
    13  N    1.442316   2.427170   3.694007   4.222148   3.699480
    14  O    2.287121   3.525933   4.662197   4.904706   4.057123
    15  O    2.289561   2.681046   4.059819   4.912791   4.670825
    16  N    4.159557   3.682539   2.421778   1.379819   2.420347
    17  H    4.718239   3.973049   2.601520   2.058385   3.313853
    18  N    5.017178   4.823537   3.690705   2.408597   2.824340
    19  C    5.915343   5.785936   4.669460   3.391166   3.654000
    20  C    6.221437   5.992832   4.889990   3.815181   4.207656
    21  H    7.183250   6.835682   5.644681   4.657158   5.198249
    22  H    5.577072   5.214315   4.117989   3.248632   3.843310
    23  C    7.066142   7.085590   6.028832   4.689338   4.702823
    24  H    7.073037   7.158682   6.154871   4.804525   4.716364
    25  H    7.943199   7.833395   6.679395   5.416559   5.619386
    26  C    7.478318   7.703956   6.806501   5.441862   5.152827
    27  H    8.444511   8.706737   7.809222   6.429489   6.104025
    28  H    6.863561   7.260517   6.521179   5.147386   4.598854
    29  C    6.718160   6.746335   5.853393   4.737060   4.730874
    30  H    6.021707   6.228105   5.513073   4.394415   4.123089
    31  H    7.259378   7.209961   6.341197   5.381054   5.478632
    32  C    7.827613   7.947085   7.024836   5.777639   5.647584
    33  H    8.409177   8.641842   7.822336   6.589358   6.311400
    34  O    8.779135   8.716708   7.643833   6.453942   6.578791
    35  C    9.929238   9.842084   8.787315   7.676149   7.826619
    36  H   10.519639  10.317506   9.177984   8.114617   8.412087
    37  H    9.709249   9.596400   8.593456   7.579443   7.758420
    38  C   10.823049  10.887941   9.911396   8.722203   8.676831
    39  C   11.447973  11.573604  10.686499   9.544542   9.423557
    40  C   11.248645  11.372118  10.381500   9.107828   8.989563
    41  C   12.426217  12.654318  11.819212  10.630355  10.387151
    42  H   11.316681  11.397726  10.541212   9.489654   9.422539
    43  C   12.236076  12.463490  11.537323  10.233146   9.988224
    44  H   10.950020  11.024117   9.976534   8.685736   8.630419
    45  C   12.795809  13.069797  12.212525  10.945921  10.647488
    46  H   13.011613  13.272030  12.495486  11.346066  11.067122
    47  H   12.694728  12.954387  12.025382  10.684769  10.401691
    48  H   13.634913  13.970730  13.151796  11.868624  11.499821
    49  H    5.211149   5.108390   4.065992   2.819063   3.044570
                    6          7          8          9         10
     6  C    0.000000
     7  H    3.353051   0.000000
     8  H    2.110068   4.893655   0.000000
     9  H    1.068086   4.220584   2.447148   0.000000
    10  N    4.197443   2.586230   4.620037   5.264594   0.000000
    11  O    4.960719   3.847675   4.859769   6.015307   1.267093
    12  O    4.858186   2.300319   5.647268   5.893018   1.226412
    13  N    2.440521   2.637664   4.548947   2.630177   4.829081
    14  O    2.684607   3.866986   4.687258   2.350131   5.915836
    15  O    3.540437   2.369048   5.609711   3.858178   4.902122
    16  N    3.675599   4.541294   2.656260   4.549342   2.884002
    17  H    4.464597   4.661219   3.651779   5.408887   2.515486
    18  N    4.193775   5.767232   2.499280   4.839359   4.264557
    19  C    4.999842   6.733780   3.122011   5.530378   5.191091
    20  C    5.448031   6.858903   3.850439   6.021374   5.265433
    21  H    6.468686   7.644374   4.858198   7.077846   5.796579
    22  H    4.997172   6.006748   3.758114   5.688601   4.409371
    23  C    5.996425   8.071557   3.929695   6.342769   6.600383
    24  H    5.965709   8.157275   3.901944   6.255069   6.787315
    25  H    6.949160   8.772877   4.927936   7.361077   7.059619
    26  C    6.291847   8.724582   4.243161   6.435718   7.546160
    27  H    7.218042   9.736354   5.147728   7.290981   8.536618
    28  H    5.600873   8.306882   3.611200   5.607878   7.438371
    29  C    5.799827   7.651692   4.189087   6.144717   6.442105
    30  H    5.041727   7.162716   3.556274   5.273505   6.307518
    31  H    6.464780   8.035683   5.062228   6.838627   6.805855
    32  C    6.761297   8.906927   4.892232   6.982124   7.640491
    33  H    7.304744   9.604515   5.518363   7.401770   8.513528
    34  O    7.798730   9.628916   5.900585   8.139045   8.028676
    35  C    8.994193  10.711244   7.187825   9.319917   9.095555
    36  H    9.640886  11.151025   7.822183  10.044588   9.338155
    37  H    8.856100  10.417381   7.212084   9.203589   8.876750
    38  C    9.778212  11.805459   7.919096   9.959538  10.353897
    39  C   10.420468  12.470038   8.686645  10.536119  11.170449
    40  C   10.118186  12.335904   8.137806  10.243484  10.876574
    41  C   11.330875  13.580430   9.580256  11.342827  12.385380
    42  H   10.373526  12.243752   8.773775  10.526815  10.977787
    43  C   11.046783  13.450581   9.078711  11.064959  12.114223
    44  H    9.822603  11.992142   7.777845   9.997110  10.430337
    45  C   11.623334  14.040221   9.760144  11.591338  12.821336
    46  H   11.940050  14.177346  10.285234  11.914717  13.079053
    47  H   11.464745  13.962736   9.450032  11.448544  12.626554
    48  H   12.431155  14.953601  10.582948  12.334067  13.806672
    49  H    4.335598   6.056505   2.637365   4.896800   4.688889
                   11         12         13         14         15
    11  O    0.000000
    12  O    2.199631   0.000000
    13  N    5.966918   4.886892   0.000000
    14  O    6.984027   6.081360   1.242771   0.000000
    15  O    6.136481   4.645931   1.239959   2.215796   0.000000
    16  N    2.532671   4.106888   5.601855   6.257812   6.263395
    17  H    1.774785   3.714103   6.140921   6.926698   6.644306
    18  N    3.815967   5.486490   6.426830   6.874707   7.249503
    19  C    4.639940   6.408646   7.297464   7.663886   8.162345
    20  C    4.692800   6.407829   7.570190   7.997997   8.352706
    21  H    5.025517   6.916520   8.555140   9.035659   9.283461
    22  H    3.913828   5.493709   6.916846   7.459782   7.597460
    23  C    6.017088   7.825399   8.395999   8.612963   9.350263
    24  H    6.256671   8.005433   8.371112   8.538710   9.352272
    25  H    6.309814   8.276415   9.309955   9.596281  10.209478
    26  C    7.103718   8.745928   8.696504   8.741661   9.735683
    27  H    8.048857   9.746969   9.638845   9.622634  10.706153
    28  H    7.174132   8.607270   7.990839   7.921660   9.088155
    29  C    6.049729   7.537129   7.935110   8.166940   8.816972
    30  H    6.125715   7.365680   7.149182   7.279189   8.088344
    31  H    6.399255   7.821643   8.430513   8.706454   9.234426
    32  C    7.154818   8.794211   9.043919   9.164033  10.009246
    33  H    8.103186   9.638514   9.535028   9.548411  10.534799
    34  O    7.335041   9.186301  10.074952  10.309007  10.970675
    35  C    8.378553  10.201111  11.190087  11.422194  12.053750
    36  H    8.501506  10.431662  11.830792  12.141119  12.646620
    37  H    8.219250   9.921162  10.928034  11.188035  11.741106
    38  C    9.704254  11.480238  12.019894  12.114461  12.963484
    39  C   10.599239  12.251037  12.562384  12.599133  13.501272
    40  C   10.205508  12.050869  12.456954  12.493854  13.457912
    41  C   11.850095  13.480986  13.487340  13.421965  14.478269
    42  H   10.437432  12.001482  12.402324  12.481081  13.284505
    43  C   11.492579  13.292611  13.382564  13.316714  14.431192
    44  H    9.704164  11.625814  12.207016  12.288110  13.200490
    45  C   12.259628  13.965650  13.875589  13.763296  14.919470
    46  H   12.591327  14.140107  14.012772  13.912945  14.991611
    47  H   11.994672  13.826319  13.840417  13.739381  14.917931
    48  H   13.270902  14.953938  14.672627  14.495181  15.743262
    49  H    4.292481   5.877761   6.573097   6.955341   7.428090
                   16         17         18         19         20
    16  N    0.000000
    17  H    1.008015   0.000000
    18  N    1.399255   2.077308   0.000000
    19  C    2.364626   2.911260   1.290312   0.000000
    20  C    2.874074   3.243165   2.450303   1.491789   0.000000
    21  H    3.539030   3.650078   3.089077   2.077999   1.084887
    22  H    2.453976   2.730737   2.599955   2.138003   1.076396
    23  C    3.729660   4.251816   2.410825   1.495862   2.548063
    24  H    3.942160   4.491045   2.543601   2.150142   3.477255
    25  H    4.285322   4.596129   3.071683   2.091716   2.788186
    26  C    4.725472   5.389300   3.527826   2.491321   2.970068
    27  H    5.680020   6.305000   4.402426   3.410674   3.942415
    28  H    4.695722   5.505523   3.576177   2.798427   3.355153
    29  C    4.105591   4.655477   3.563254   2.492375   1.555393
    30  H    4.072578   4.788939   3.622624   2.808752   2.188780
    31  H    4.775833   5.200849   4.442280   3.407503   2.146267
    32  C    5.025284   5.581872   4.104698   2.872833   2.516550
    33  H    5.964775   6.571208   5.077267   3.892990   3.470695
    34  O    5.457096   5.791324   4.535927   3.251199   2.814288
    35  C    6.700863   6.964749   5.903823   4.621923   3.901633
    36  H    7.018975   7.143584   6.247373   5.009817   4.332009
    37  H    6.693240   6.944513   6.086240   4.838669   3.822808
    38  C    7.834559   8.209355   6.907203   5.622139   5.091204
    39  C    8.770078   9.181705   7.936469   6.659359   5.966882
    40  C    8.188938   8.596292   7.088524   5.854923   5.667784
    41  C    9.905457  10.376931   8.989924   7.731086   7.174618
    42  H    8.763206   9.141194   8.079539   6.820010   5.918340
    43  C    9.387916   9.855916   8.243977   7.043157   6.921469
    44  H    7.690119   8.055950   6.521353   5.340637   5.359353
    45  C   10.184874  10.682016   9.127593   7.899709   7.591439
    46  H   10.688072  11.173442   9.836440   8.587110   7.940883
    47  H    9.830255  10.308128   8.604786   7.469064   7.537265
    48  H   11.146130  11.674225  10.060286   8.856642   8.603091
    49  H    2.055349   2.644735   1.008684   2.000994   3.368681
                   21         22         23         24         25
    21  H    0.000000
    22  H    1.771079   0.000000
    23  C    2.780958   3.470019   0.000000
    24  H    3.763466   4.278385   1.081921   0.000000
    25  H    2.581508   3.768409   1.084171   1.771812   0.000000
    26  C    3.325963   3.942226   1.553517   2.197424   2.128346
    27  H    4.118707   4.958378   2.149875   2.508827   2.416899
    28  H    3.980261   4.153384   2.189879   2.542038   3.041537
    29  C    2.133654   2.200308   2.965660   3.948868   3.312283
    30  H    3.043841   2.536069   3.363665   4.176788   3.978407
    31  H    2.420931   2.507385   3.939262   4.965161   4.105682
    32  C    2.702323   3.470921   2.504800   3.463031   2.678947
    33  H    3.675870   4.325505   3.453629   4.308818   3.644717
    34  O    2.409643   3.818369   2.753665   3.746799   2.325921
    35  C    3.358092   4.761069   4.207065   5.181542   3.700179
    36  H    3.556649   5.158171   4.590352   5.521239   3.861149
    37  H    3.349208   4.502052   4.728748   5.770893   4.354706
    38  C    4.713182   6.000979   4.926411   5.768177   4.516252
    39  C    5.678701   6.767281   6.088818   6.950305   5.791614
    40  C    5.315007   6.678321   4.839604   5.478964   4.392161
    41  C    6.948345   8.008618   7.004805   7.755387   6.752777
    42  H    5.639377   6.586879   6.476500   7.419366   6.214074
    43  C    6.648315   7.927296   5.944157   6.462881   5.592290
    44  H    4.956230   6.412444   4.197213   4.742762   3.634347
    45  C    7.366319   8.524207   6.943052   7.542409   6.669196
    46  H    7.753748   8.705543   7.943928   8.713591   7.738970
    47  H    7.276974   8.578280   6.228833   6.586432   5.875446
    48  H    8.412318   9.537093   7.847835   8.375574   7.609672
    49  H    3.925631   3.606355   2.578791   2.269384   3.279467
                   26         27         28         29         30
    26  C    0.000000
    27  H    1.080147   0.000000
    28  H    1.083013   1.757928   0.000000
    29  C    2.508626   3.446599   2.749893   0.000000
    30  H    2.751083   3.736674   2.548177   1.082930   0.000000
    31  H    3.457160   4.284126   3.744944   1.081635   1.750544
    32  C    1.528755   2.148147   2.161892   1.531537   2.160808
    33  H    2.155394   2.462229   2.517065   2.169054   2.521594
    34  O    2.367110   2.624849   3.323056   2.414812   3.356099
    35  C    3.653340   3.734414   4.522991   3.279203   4.217359
    36  H    4.340545   4.357957   5.307655   4.047364   5.063985
    37  H    4.145251   4.431937   4.869890   3.067325   3.972195
    38  C    4.009972   3.754803   4.772008   4.187268   4.917568
    39  C    5.006180   4.807495   5.588008   4.840433   5.429030
    40  C    3.944974   3.335085   4.736850   4.894403   5.558575
    41  C    5.795464   5.406081   6.279188   5.979719   6.442964
    42  H    5.444738   5.439255   5.971980   4.759345   5.335321
    43  C    4.901188   4.144959   5.528730   6.017465   6.546462
    44  H    3.567447   2.874610   4.474765   4.847228   5.560498
    45  C    5.750783   5.125088   6.252928   6.491971   6.942432
    46  H    6.684329   6.352571   7.079899   6.664951   7.051273
    47  H    5.269196   4.361731   5.871188   6.730835   7.224748
    48  H    6.616411   5.925053   7.039712   7.469457   7.850056
    49  H    3.790251   4.508489   3.775230   4.366876   4.372576
                   31         32         33         34         35
    31  H    0.000000
    32  C    2.167388   0.000000
    33  H    2.502479   1.080981   0.000000
    34  O    2.713496   1.439347   2.085419   0.000000
    35  C    3.105961   2.460553   2.549698   1.455411   0.000000
    36  H    3.863331   3.321821   3.576500   2.018229   1.079712
    37  H    2.548946   2.714255   2.706885   2.092432   1.083457
    38  C    4.092746   3.033110   2.626017   2.452575   1.510487
    39  C    4.531203   3.896682   3.196980   3.616635   2.522251
    40  C    5.062067   3.480499   3.156277   2.912530   2.502318
    41  C    5.759707   4.910505   4.081321   4.755419   3.795501
    42  H    4.224855   4.135554   3.463948   3.918006   2.728163
    43  C    6.180693   4.581003   4.043915   4.238723   3.778026
    44  H    5.176411   3.404100   3.391342   2.665178   2.680199
    45  C    6.481183   5.197660   4.440980   5.006464   4.285827
    46  H    6.339181   5.732617   4.832870   5.673085   4.653238
    47  H    7.013104   5.231704   4.782231   4.896915   4.631159
    48  H    7.476450   6.167171   5.368080   6.045380   5.357126
    49  H    5.316517   4.670590   5.614250   5.090785   6.516174
                   36         37         38         39         40
    36  H    0.000000
    37  H    1.757512   0.000000
    38  C    2.149723   2.146818   0.000000
    39  C    3.173708   2.622986   1.383460   0.000000
    40  C    2.875212   3.394864   1.388407   2.394212   0.000000
    41  C    4.373770   4.004647   2.402236   1.386496   2.765911
    42  H    3.379698   2.384956   2.133908   1.073415   3.369329
    43  C    4.158600   4.544014   2.402009   2.766368   1.380704
    44  H    2.848596   3.721053   2.129684   3.362520   1.072117
    45  C    4.769865   4.787922   2.775596   2.397812   2.397133
    46  H    5.236881   4.676677   3.370677   2.132772   3.837318
    47  H    4.918148   5.485742   3.372646   3.838058   2.129707
    48  H    5.819120   5.841004   3.846945   3.369339   3.367581
    49  H    6.833300   6.819910   7.410847   8.500163   7.416050
                   41         42         43         44         45
    41  C    0.000000
    42  H    2.132555   0.000000
    43  C    2.396276   3.839769   0.000000
    44  H    3.837978   4.251372   2.133374   0.000000
    45  C    1.381886   3.367720   1.386964   3.371199   0.000000
    46  H    1.071414   2.450915   3.368753   4.909372   2.131661
    47  H    3.367025   4.911455   1.071703   2.458514   2.134600
    48  H    2.131125   4.252629   2.135321   4.256834   1.071356
    49  H    9.470793   8.743805   8.504167   6.759739   9.473042
                   46         47         48         49
    46  H    0.000000
    47  H    4.254291   0.000000
    48  H    2.456767   2.458526   0.000000
    49  H   10.355535   8.746569  10.360202   0.000000
 Stoichiometry    C19H21N4O5(1+)
 Framework group  C1[X(C19H21N4O5)]
 Deg. of freedom   141
 Full point group                 C1
 Largest Abelian subgroup         C1      NOp   1
 Largest concise Abelian subgroup C1      NOp   1
                         Standard orientation:                         
 ---------------------------------------------------------------------
 Center     Atomic     Atomic              Coordinates (Angstroms)
 Number     Number      Type              X           Y           Z
 ---------------------------------------------------------------------
    1          6             0       -4.925452    1.373655   -0.054296
    2          6             0       -5.113155    0.059977   -0.377784
    3          6             0       -4.107522   -0.854533   -0.144818
    4          6             0       -2.885027   -0.454295    0.417677
    5          6             0       -2.730286    0.894845    0.735711
    6          6             0       -3.737826    1.798265    0.504071
    7          1             0       -6.035040   -0.262567   -0.806933
    8          1             0       -1.811709    1.237348    1.158161
    9          1             0       -3.621407    2.832139    0.745646
   10          7             0       -4.380693   -2.226496   -0.499199
   11          8             0       -3.482361   -3.093185   -0.281544
   12          8             0       -5.472771   -2.485281   -0.993651
   13          7             0       -5.981114    2.325303   -0.299692
   14          8             0       -5.751393    3.505292    0.015482
   15          8             0       -7.026520    1.889025   -0.803961
   16          7             0       -1.871383   -1.365601    0.632035
   17          1             0       -2.070854   -2.343430    0.490062
   18          7             0       -0.770653   -1.019246    1.423456
   19          6             0        0.429256   -0.927131    0.958013
   20          6             0        0.764152   -1.106163   -0.484633
   21          1             0        1.410281   -1.975624   -0.544097
   22          1             0       -0.118106   -1.260272   -1.081710
   23          6             0        1.563796   -0.637368    1.888850
   24          1             0        1.225760   -0.480001    2.904488
   25          1             0        2.234373   -1.488540    1.853362
   26          6             0        2.374921    0.576570    1.357957
   27          1             0        3.240075    0.704812    1.991818
   28          1             0        1.783674    1.483411    1.389329
   29          6             0        1.605882    0.103320   -0.982516
   30          1             0        1.011554    1.008537   -0.992168
   31          1             0        1.910187   -0.106376   -1.999060
   32          6             0        2.825061    0.277869   -0.072163
   33          1             0        3.469613    1.067201   -0.432756
   34          8             0        3.534121   -0.972925   -0.005322
   35          6             0        4.639287   -1.141498   -0.937208
   36          1             0        4.952288   -2.166238   -0.804105
   37          1             0        4.291502   -1.014430   -1.955431
   38          6             0        5.768943   -0.184685   -0.637282
   39          6             0        6.380927    0.540382   -1.644116
   40          6             0        6.209974   -0.043174    0.671588
   41          6             0        7.432977    1.394338   -1.350312
   42          1             0        6.047500    0.437845   -2.659267
   43          6             0        7.254903    0.809685    0.966714
   44          1             0        5.737829   -0.610532    1.449160
   45          6             0        7.869390    1.530761   -0.046264
   46          1             0        7.905648    1.948089   -2.136360
   47          1             0        7.597006    0.908881    1.977492
   48          1             0        8.682987    2.189485    0.181651
   49          1             0       -0.946112   -0.915774    2.411358
 ---------------------------------------------------------------------
 Rotational constants (GHZ):      0.4013036      0.0575779      0.0536926
 Standard basis: 6-311G(d,p) (5D, 7F)
 There are   630 symmetry adapted basis functions of A   symmetry.
 Integral buffers will be    131072 words long.
 Raffenetti 1 integral format.
 Two-electron integral symmetry is turned on.
   630 basis functions,  1064 primitive gaussians,   658 cartesian basis functions
   101 alpha electrons      101 beta electrons
       nuclear repulsion energy      2482.8378497305 Hartrees.
 NAtoms=   49 NActive=   49 NUniq=   49 SFac= 7.50D-01 NAtFMM=   80 NAOKFM=F Big=F
 One-electron integrals computed using PRISM.
 NBasis=   630 RedAO= T  NBF=   630
 NBsUse=   630 1.00D-06 NBFU=   630
 Harris functional with IExCor=  205 diagonalized for initial guess.
 ExpMin= 1.03D-01 ExpMax= 8.59D+03 ExpMxC= 1.30D+03 IAcc=1 IRadAn=         1 AccDes= 1.00D-06
 HarFok:  IExCor= 205 AccDes= 1.00D-06 IRadAn=         1 IDoV=1
 ScaDFX=  1.000000  1.000000  1.000000  1.000000
 Initial guess orbital symmetries:
       Occupied  (A) (A) (A) (A) (A) (A) (A) (A) (A) (A) (A) (A)
                 (A) (A) (A) (A) (A) (A) (A) (A) (A) (A) (A) (A)
                 (A) (A) (A) (A) (A) (A) (A) (A) (A) (A) (A) (A)
                 (A) (A) (A) (A) (A) (A) (A) (A) (A) (A) (A) (A)
                 (A) (A) (A) (A) (A) (A) (A) (A) (A) (A) (A) (A)
                 (A) (A) (A) (A) (A) (A) (A) (A) (A) (A) (A) (A)
                 (A) (A) (A) (A) (A) (A) (A) (A) (A) (A) (A) (A)
                 (A) (A) (A) (A) (A) (A) (A) (A) (A) (A) (A) (A)
                 (A) (A) (A) (A) (A)
       Virtual   (A) (A) (A) (A) (A) (A) (A) (A) (A) (A) (A) (A)
                 (A) (A) (A) (A) (A) (A) (A) (A) (A) (A) (A) (A)
                 (A) (A) (A) (A) (A) (A) (A) (A) (A) (A) (A) (A)
                 (A) (A) (A) (A) (A) (A) (A) (A) (A) (A) (A) (A)
                 (A) (A) (A) (A) (A) (A) (A) (A) (A) (A) (A) (A)
                 (A) (A) (A) (A) (A) (A) (A) (A) (A) (A) (A) (A)
                 (A) (A) (A) (A) (A) (A) (A) (A) (A) (A) (A) (A)
                 (A) (A) (A) (A) (A) (A) (A) (A) (A) (A) (A) (A)
                 (A) (A) (A) (A) (A) (A) (A) (A) (A) (A) (A) (A)
                 (A) (A) (A) (A) (A) (A) (A) (A) (A) (A) (A) (A)
                 (A) (A) (A) (A) (A) (A) (A) (A) (A) (A) (A) (A)
                 (A) (A) (A) (A) (A) (A) (A) (A) (A) (A) (A) (A)
                 (A) (A) (A) (A) (A) (A) (A) (A) (A) (A) (A) (A)
                 (A) (A) (A) (A) (A) (A) (A) (A) (A) (A) (A) (A)
                 (A) (A) (A) (A) (A) (A) (A) (A) (A) (A) (A) (A)
                 (A) (A) (A) (A) (A) (A) (A) (A) (A) (A) (A) (A)
                 (A) (A) (A) (A) (A) (A) (A) (A) (A) (A) (A) (A)
                 (A) (A) (A) (A) (A) (A) (A) (A) (A) (A) (A) (A)
                 (A) (A) (A) (A) (A) (A) (A) (A) (A) (A) (A) (A)
                 (A) (A) (A) (A) (A) (A) (A) (A) (A) (A) (A) (A)
                 (A) (A) (A) (A) (A) (A) (A) (A) (A) (A) (A) (A)
                 (A) (A) (A) (A) (A) (A) (A) (A) (A) (A) (A) (A)
                 (A) (A) (A) (A) (A) (A) (A) (A) (A) (A) (A) (A)
                 (A) (A) (A) (A) (A) (A) (A) (A) (A) (A) (A) (A)
                 (A) (A) (A) (A) (A) (A) (A) (A) (A) (A) (A) (A)
                 (A) (A) (A) (A) (A) (A) (A) (A) (A) (A) (A) (A)
                 (A) (A) (A) (A) (A) (A) (A) (A) (A) (A) (A) (A)
                 (A) (A) (A) (A) (A) (A) (A) (A) (A) (A) (A) (A)
                 (A) (A) (A) (A) (A) (A) (A) (A) (A) (A) (A) (A)
                 (A) (A) (A) (A) (A) (A) (A) (A) (A) (A) (A) (A)
                 (A) (A) (A) (A) (A) (A) (A) (A) (A) (A) (A) (A)
                 (A) (A) (A) (A) (A) (A) (A) (A) (A) (A) (A) (A)
                 (A) (A) (A) (A) (A) (A) (A) (A) (A) (A) (A) (A)
                 (A) (A) (A) (A) (A) (A) (A) (A) (A) (A) (A) (A)
                 (A) (A) (A) (A) (A) (A) (A) (A) (A) (A) (A) (A)
                 (A) (A) (A) (A) (A) (A) (A) (A) (A) (A) (A) (A)
                 (A) (A) (A) (A) (A) (A) (A) (A) (A) (A) (A) (A)
                 (A) (A) (A) (A) (A) (A) (A) (A) (A) (A) (A) (A)
                 (A) (A) (A) (A) (A) (A) (A) (A) (A) (A) (A) (A)
                 (A) (A) (A) (A) (A) (A) (A) (A) (A) (A) (A) (A)
                 (A) (A) (A) (A) (A) (A) (A) (A) (A) (A) (A) (A)
                 (A) (A) (A) (A) (A) (A) (A) (A) (A) (A) (A) (A)
                 (A) (A) (A) (A) (A) (A) (A) (A) (A) (A) (A) (A)
                 (A) (A) (A) (A) (A) (A) (A) (A) (A) (A) (A) (A)
                 (A)
 The electronic state of the initial guess is 1-A.
 Requested convergence on RMS density matrix=1.00D-08 within 128 cycles.
 Requested convergence on MAX density matrix=1.00D-06.
 Requested convergence on             energy=1.00D-06.
 No special actions if energy rises.
 Integral accuracy reduced to 1.0D-05 until final iterations.
 Initial convergence to 1.0D-05 achieved.  Increase integral accuracy.
 SCF Done:  E(RHF) =  -1323.61969194     A.U. after   16 cycles
             Convg  =    0.4775D-08             -V/T =  2.0007
             S**2   =   0.0000

 **********************************************************************

            Population analysis using the SCF density.

 **********************************************************************

 Orbital symmetries:
       Occupied  (A) (A) (A) (A) (A) (A) (A) (A) (A) (A) (A) (A)
                 (A) (A) (A) (A) (A) (A) (A) (A) (A) (A) (A) (A)
                 (A) (A) (A) (A) (A) (A) (A) (A) (A) (A) (A) (A)
                 (A) (A) (A) (A) (A) (A) (A) (A) (A) (A) (A) (A)
                 (A) (A) (A) (A) (A) (A) (A) (A) (A) (A) (A) (A)
                 (A) (A) (A) (A) (A) (A) (A) (A) (A) (A) (A) (A)
                 (A) (A) (A) (A) (A) (A) (A) (A) (A) (A) (A) (A)
                 (A) (A) (A) (A) (A) (A) (A) (A) (A) (A) (A) (A)
                 (A) (A) (A) (A) (A)
       Virtual   (A) (A) (A) (A) (A) (A) (A) (A) (A) (A) (A) (A)
                 (A) (A) (A) (A) (A) (A) (A) (A) (A) (A) (A) (A)
                 (A) (A) (A) (A) (A) (A) (A) (A) (A) (A) (A) (A)
                 (A) (A) (A) (A) (A) (A) (A) (A) (A) (A) (A) (A)
                 (A) (A) (A) (A) (A) (A) (A) (A) (A) (A) (A) (A)
                 (A) (A) (A) (A) (A) (A) (A) (A) (A) (A) (A) (A)
                 (A) (A) (A) (A) (A) (A) (A) (A) (A) (A) (A) (A)
                 (A) (A) (A) (A) (A) (A) (A) (A) (A) (A) (A) (A)
                 (A) (A) (A) (A) (A) (A) (A) (A) (A) (A) (A) (A)
                 (A) (A) (A) (A) (A) (A) (A) (A) (A) (A) (A) (A)
                 (A) (A) (A) (A) (A) (A) (A) (A) (A) (A) (A) (A)
                 (A) (A) (A) (A) (A) (A) (A) (A) (A) (A) (A) (A)
                 (A) (A) (A) (A) (A) (A) (A) (A) (A) (A) (A) (A)
                 (A) (A) (A) (A) (A) (A) (A) (A) (A) (A) (A) (A)
                 (A) (A) (A) (A) (A) (A) (A) (A) (A) (A) (A) (A)
                 (A) (A) (A) (A) (A) (A) (A) (A) (A) (A) (A) (A)
                 (A) (A) (A) (A) (A) (A) (A) (A) (A) (A) (A) (A)
                 (A) (A) (A) (A) (A) (A) (A) (A) (A) (A) (A) (A)
                 (A) (A) (A) (A) (A) (A) (A) (A) (A) (A) (A) (A)
                 (A) (A) (A) (A) (A) (A) (A) (A) (A) (A) (A) (A)
                 (A) (A) (A) (A) (A) (A) (A) (A) (A) (A) (A) (A)
                 (A) (A) (A) (A) (A) (A) (A) (A) (A) (A) (A) (A)
                 (A) (A) (A) (A) (A) (A) (A) (A) (A) (A) (A) (A)
                 (A) (A) (A) (A) (A) (A) (A) (A) (A) (A) (A) (A)
                 (A) (A) (A) (A) (A) (A) (A) (A) (A) (A) (A) (A)
                 (A) (A) (A) (A) (A) (A) (A) (A) (A) (A) (A) (A)
                 (A) (A) (A) (A) (A) (A) (A) (A) (A) (A) (A) (A)
                 (A) (A) (A) (A) (A) (A) (A) (A) (A) (A) (A) (A)
                 (A) (A) (A) (A) (A) (A) (A) (A) (A) (A) (A) (A)
                 (A) (A) (A) (A) (A) (A) (A) (A) (A) (A) (A) (A)
                 (A) (A) (A) (A) (A) (A) (A) (A) (A) (A) (A) (A)
                 (A) (A) (A) (A) (A) (A) (A) (A) (A) (A) (A) (A)
                 (A) (A) (A) (A) (A) (A) (A) (A) (A) (A) (A) (A)
                 (A) (A) (A) (A) (A) (A) (A) (A) (A) (A) (A) (A)
                 (A) (A) (A) (A) (A) (A) (A) (A) (A) (A) (A) (A)
                 (A) (A) (A) (A) (A) (A) (A) (A) (A) (A) (A) (A)
                 (A) (A) (A) (A) (A) (A) (A) (A) (A) (A) (A) (A)
                 (A) (A) (A) (A) (A) (A) (A) (A) (A) (A) (A) (A)
                 (A) (A) (A) (A) (A) (A) (A) (A) (A) (A) (A) (A)
                 (A) (A) (A) (A) (A) (A) (A) (A) (A) (A) (A) (A)
                 (A) (A) (A) (A) (A) (A) (A) (A) (A) (A) (A) (A)
                 (A) (A) (A) (A) (A) (A) (A) (A) (A) (A) (A) (A)
                 (A) (A) (A) (A) (A) (A) (A) (A) (A) (A) (A) (A)
                 (A) (A) (A) (A) (A) (A) (A) (A) (A) (A) (A) (A)
                 (A)
 The electronic state is 1-A.
 Alpha  occ. eigenvalues --  -20.73595 -20.71794 -20.69970 -20.69808 -20.67878
 Alpha  occ. eigenvalues --  -15.98396 -15.95462 -15.86668 -15.79130 -11.53742
 Alpha  occ. eigenvalues --  -11.48804 -11.44669 -11.42594 -11.41984 -11.41614
 Alpha  occ. eigenvalues --  -11.41535 -11.41047 -11.40505 -11.39754 -11.39256
 Alpha  occ. eigenvalues --  -11.38133 -11.38104 -11.33000 -11.32082 -11.31927
 Alpha  occ. eigenvalues --  -11.31736 -11.31634 -11.31408  -1.72127  -1.69349
 Alpha  occ. eigenvalues --   -1.56761  -1.51502  -1.49330  -1.49115  -1.39876
 Alpha  occ. eigenvalues --   -1.33879  -1.27711  -1.25246  -1.24849  -1.21445
 Alpha  occ. eigenvalues --   -1.19474  -1.16148  -1.13032  -1.11125  -1.10806
 Alpha  occ. eigenvalues --   -1.09034  -1.04721  -1.03119  -1.02273  -0.99485
 Alpha  occ. eigenvalues --   -0.96952  -0.93955  -0.93269  -0.92106  -0.91024
 Alpha  occ. eigenvalues --   -0.89330  -0.88828  -0.86926  -0.86118  -0.85827
 Alpha  occ. eigenvalues --   -0.84136  -0.82296  -0.81673  -0.81370  -0.80486
 Alpha  occ. eigenvalues --   -0.79450  -0.78916  -0.78204  -0.77490  -0.76274
 Alpha  occ. eigenvalues --   -0.75020  -0.74044  -0.73121  -0.72273  -0.71918
 Alpha  occ. eigenvalues --   -0.70559  -0.70193  -0.69561  -0.69210  -0.68028
 Alpha  occ. eigenvalues --   -0.67744  -0.66637  -0.66136  -0.63833  -0.63015
 Alpha  occ. eigenvalues --   -0.62647  -0.62597  -0.61664  -0.60424  -0.59698
 Alpha  occ. eigenvalues --   -0.59172  -0.59074  -0.58586  -0.57603  -0.57407
 Alpha  occ. eigenvalues --   -0.54766  -0.54509  -0.52044  -0.48474  -0.42685
 Alpha  occ. eigenvalues --   -0.42282
 Alpha virt. eigenvalues --   -0.09500  -0.07337  -0.06498  -0.01614   0.00261
 Alpha virt. eigenvalues --    0.01903   0.03023   0.03866   0.04141   0.05030
 Alpha virt. eigenvalues --    0.05357   0.05752   0.06600   0.07504   0.08298
 Alpha virt. eigenvalues --    0.09061   0.09794   0.10472   0.11360   0.11448
 Alpha virt. eigenvalues --    0.11806   0.12711   0.13238   0.13940   0.14522
 Alpha virt. eigenvalues --    0.15273   0.15902   0.16795   0.17906   0.18872
 Alpha virt. eigenvalues --    0.19080   0.20199   0.20818   0.21973   0.23037
 Alpha virt. eigenvalues --    0.23085   0.24103   0.25471   0.26146   0.26856
 Alpha virt. eigenvalues --    0.28091   0.28749   0.29474   0.30578   0.30894
 Alpha virt. eigenvalues --    0.31570   0.32383   0.33845   0.34284   0.35103
 Alpha virt. eigenvalues --    0.35861   0.36261   0.36672   0.37168   0.38075
 Alpha virt. eigenvalues --    0.38319   0.39063   0.39867   0.40235   0.41044
 Alpha virt. eigenvalues --    0.41501   0.41556   0.41829   0.43395   0.43816
 Alpha virt. eigenvalues --    0.44568   0.45563   0.46120   0.47228   0.47884
 Alpha virt. eigenvalues --    0.48595   0.48897   0.48930   0.49405   0.49951
 Alpha virt. eigenvalues --    0.50883   0.51409   0.52075   0.52544   0.53112
 Alpha virt. eigenvalues --    0.53890   0.54282   0.54504   0.55242   0.55300
 Alpha virt. eigenvalues --    0.56361   0.57076   0.57415   0.57963   0.58767
 Alpha virt. eigenvalues --    0.59311   0.60125   0.60523   0.61116   0.61783
 Alpha virt. eigenvalues --    0.62205   0.62777   0.63527   0.63713   0.64094
 Alpha virt. eigenvalues --    0.64767   0.65322   0.65919   0.66539   0.66902
 Alpha virt. eigenvalues --    0.67433   0.67650   0.68244   0.68514   0.68872
 Alpha virt. eigenvalues --    0.69455   0.69564   0.70814   0.71091   0.71341
 Alpha virt. eigenvalues --    0.71933   0.72745   0.72935   0.73130   0.73901
 Alpha virt. eigenvalues --    0.74347   0.74590   0.74737   0.75693   0.76068
 Alpha virt. eigenvalues --    0.76495   0.76873   0.77707   0.77856   0.78797
 Alpha virt. eigenvalues --    0.79585   0.80136   0.80179   0.81015   0.81845
 Alpha virt. eigenvalues --    0.82616   0.85297   0.85645   0.86390   0.87707
 Alpha virt. eigenvalues --    0.87937   0.88980   0.89060   0.89933   0.91057
 Alpha virt. eigenvalues --    0.92155   0.92472   0.93163   0.93939   0.94697
 Alpha virt. eigenvalues --    0.95092   0.96046   0.96430   0.96742   0.97476
 Alpha virt. eigenvalues --    0.98420   0.98816   0.99456   0.99642   1.00813
 Alpha virt. eigenvalues --    1.01362   1.02388   1.03384   1.03667   1.05303
 Alpha virt. eigenvalues --    1.06078   1.07104   1.08439   1.09507   1.09970
 Alpha virt. eigenvalues --    1.10772   1.11801   1.12247   1.13420   1.14020
 Alpha virt. eigenvalues --    1.14458   1.15837   1.16755   1.17173   1.19084
 Alpha virt. eigenvalues --    1.19457   1.19644   1.21176   1.22143   1.23529
 Alpha virt. eigenvalues --    1.24062   1.25010   1.25751   1.26395   1.27072
 Alpha virt. eigenvalues --    1.27608   1.28945   1.29901   1.30441   1.30949
 Alpha virt. eigenvalues --    1.32286   1.34265   1.36934   1.37479   1.38473
 Alpha virt. eigenvalues --    1.38878   1.39994   1.41176   1.42704   1.43805
 Alpha virt. eigenvalues --    1.44559   1.45382   1.48946   1.50888   1.51370
 Alpha virt. eigenvalues --    1.52480   1.54395   1.55645   1.57501   1.58670
 Alpha virt. eigenvalues --    1.58789   1.59641   1.60571   1.61466   1.62035
 Alpha virt. eigenvalues --    1.62935   1.63639   1.64109   1.64539   1.64886
 Alpha virt. eigenvalues --    1.65843   1.66223   1.67132   1.67793   1.68889
 Alpha virt. eigenvalues --    1.69822   1.70013   1.70648   1.70741   1.71807
 Alpha virt. eigenvalues --    1.72562   1.72997   1.73775   1.74200   1.74589
 Alpha virt. eigenvalues --    1.75143   1.75654   1.76178   1.76832   1.78335
 Alpha virt. eigenvalues --    1.78507   1.79275   1.80255   1.80809   1.81083
 Alpha virt. eigenvalues --    1.81435   1.82260   1.82744   1.83597   1.84131
 Alpha virt. eigenvalues --    1.84915   1.85857   1.85915   1.86591   1.87710
 Alpha virt. eigenvalues --    1.88202   1.88687   1.89844   1.91604   1.91903
 Alpha virt. eigenvalues --    1.93015   1.93240   1.94164   1.94505   1.96079
 Alpha virt. eigenvalues --    1.97146   1.97422   1.98289   1.98995   1.99465
 Alpha virt. eigenvalues --    2.00991   2.01685   2.03103   2.05243   2.05608
 Alpha virt. eigenvalues --    2.06575   2.06736   2.07628   2.08344   2.08901
 Alpha virt. eigenvalues --    2.09712   2.10995   2.12046   2.12646   2.13754
 Alpha virt. eigenvalues --    2.14337   2.14777   2.15556   2.16021   2.16922
 Alpha virt. eigenvalues --    2.17741   2.18561   2.19707   2.20310   2.21596
 Alpha virt. eigenvalues --    2.22908   2.23804   2.24347   2.24786   2.26900
 Alpha virt. eigenvalues --    2.28440   2.29707   2.30615   2.30950   2.31402
 Alpha virt. eigenvalues --    2.33957   2.35432   2.36724   2.37182   2.38827
 Alpha virt. eigenvalues --    2.39835   2.40540   2.41487   2.43036   2.44107
 Alpha virt. eigenvalues --    2.45568   2.46328   2.46908   2.48365   2.49213
 Alpha virt. eigenvalues --    2.51208   2.52289   2.53244   2.54434   2.54948
 Alpha virt. eigenvalues --    2.55744   2.57966   2.58714   2.58830   2.60469
 Alpha virt. eigenvalues --    2.61631   2.61921   2.62792   2.63519   2.65193
 Alpha virt. eigenvalues --    2.67250   2.68449   2.69588   2.70393   2.70776
 Alpha virt. eigenvalues --    2.71534   2.73995   2.74703   2.76374   2.77711
 Alpha virt. eigenvalues --    2.78671   2.79685   2.81088   2.81516   2.81733
 Alpha virt. eigenvalues --    2.82274   2.82937   2.83884   2.84150   2.84891
 Alpha virt. eigenvalues --    2.85079   2.85771   2.86032   2.86285   2.86672
 Alpha virt. eigenvalues --    2.87002   2.88385   2.89656   2.89812   2.90722
 Alpha virt. eigenvalues --    2.91735   2.92762   2.93414   2.93922   2.94847
 Alpha virt. eigenvalues --    2.95487   2.96711   2.97394   2.99051   3.00151
 Alpha virt. eigenvalues --    3.01670   3.03170   3.03688   3.05331   3.05661
 Alpha virt. eigenvalues --    3.06674   3.07098   3.08047   3.08503   3.09158
 Alpha virt. eigenvalues --    3.09744   3.10176   3.10975   3.11778   3.12390
 Alpha virt. eigenvalues --    3.12971   3.14495   3.14785   3.16264   3.17380
 Alpha virt. eigenvalues --    3.17513   3.18075   3.18776   3.21165   3.21909
 Alpha virt. eigenvalues --    3.23519   3.24919   3.26005   3.27089   3.29551
 Alpha virt. eigenvalues --    3.31401   3.33234   3.36372   3.37267   3.38155
 Alpha virt. eigenvalues --    3.40240   3.42982   3.43852   3.47382   3.48109
 Alpha virt. eigenvalues --    3.49236   3.50769   3.51746   3.53483   3.54151
 Alpha virt. eigenvalues --    3.55745   3.56606   3.58629   3.60559   3.61037
 Alpha virt. eigenvalues --    3.61315   3.62973   3.63506   3.66079   3.69697
 Alpha virt. eigenvalues --    3.71603   3.71978   3.74708   3.75352   3.76462
 Alpha virt. eigenvalues --    3.82968   3.84163   3.84777   3.93282   3.95192
[...]
 9,-0.00004691,0.00003279,0.00000259,0.00000948,-0.00000153,0.00000068,
 -0.00000948,0.00000454,0.00000812,0.00000312,-0.00000327,-0.00000206,0
 .00000790,-0.00000120,0.00000204,0.00000482,-0.00000673,-0.00000223,-0
 .00000765,0.00001262,0.00000473,-0.00000769,0.00000367,0.00000174,-0.0
 0000746,0.00000924,-0.00001479,0.00002158,-0.00001245,0.00000642,-0.00
 000558,0.00000254,0.00000129,0.00001999,-0.00000555,0.00000201,-0.0000
 0880,-0.00000550,-0.00000231,-0.00013123,-0.00001872,-0.00011814,-0.00
 001630,0.00000977,-0.00001262,0.00019134,-0.00013843,0.00008693,-0.000
 32766,0.00009038,0.00009394,0.00007601,-0.00002777,-0.00006445,0.00002
 829,0.00000680,0.00000087,-0.00094000,0.00278243,-0.00163435,-0.001948
 34,0.00110089,0.00013192,-0.00025460,0.00032670,0.00089274,0.00413244,
 -0.30257701,-0.13118804,0.00159698,0.00021680,0.00087115,-0.00560561,-
 0.00117447,0.00046397,0.00026996,-0.00016189,0.00019867,0.00418246,-0.
 01554270,-0.01451928,-0.00256490,0.31575330,0.00000859,-0.00000176,-0.
 00000434,0.00000296,-0.00000039,0.00000050,0.00000549,-0.00000056,-0.0
 0000159,-0.00003186,0.00000781,-0.00002080,0.00000602,-0.00000011,0.00
 001476,-0.00001157,0.00000201,-0.00000185,-0.00000156,0.00000010,0.000
 00119,-0.00000023,-0.00000001,-0.00000277,-0.00000169,0.00000034,-0.00
 000023,-0.00002508,0.00000036,0.00001753,0.00001573,-0.00000127,-0.000
 00638,0.00001567,-0.00000022,-0.00001295,-0.00002161,0.00000281,-0.000
 00266,0.00000765,-0.00000089,0.00000150,0.00001356,-0.00000194,-0.0000
 0131,0.00002128,-0.00002206,0.00000893,-0.00000051,0.00000605,0.000010
 76,0.00002857,-0.00002558,0.00000248,-0.00005655,0.00004314,0.00000577
 ,0.00001081,0.00000220,-0.00000377,-0.00001382,0.00000260,0.00001338,0
 .00000556,-0.00000695,-0.00000168,0.00000328,-0.00000392,-0.00000180,0
 .00000925,-0.00000832,-0.00000081,-0.00000130,0.00001698,-0.00000013,0
 .00001669,0.00002584,0.00000473,0.00000112,0.00000336,-0.00000229,0.00
 000515,-0.00001460,0.00000906,0.00000696,-0.00001476,0.00002565,0.0000
 2194,-0.00000326,0.00000037,-0.00000954,-0.00000631,-0.00000602,-0.000
 17934,0.00002564,-0.00012571,0.00000272,-0.00001953,0.00000675,0.00070
 590,-0.00039560,-0.00014714,-0.00074376,-0.00082057,0.00004298,0.00010
 846,-0.00006272,-0.00017698,0.00004635,0.00002404,-0.00000068,0.007310
 80,-0.00147018,0.00039154,-0.00152068,-0.02369344,-0.00567430,0.000121
 85,0.00093295,-0.00070997,0.01660195,-0.13101030,-0.12821766,-0.002448
 60,0.00163935,-0.00152440,0.00493272,0.00007446,0.00413673,-0.00052237
 ,0.00020557,-0.00048298,0.00028007,0.00934003,0.00988020,-0.02181263,0
 .14378395,0.12428102,-0.00000226,0.00000045,-0.00000161,0.00000167,-0.
 00000053,0.00000128,-0.00000179,0.00000033,-0.00000148,0.00001362,-0.0
 0000555,0.00000955,-0.00000413,0.00000465,-0.00000640,0.00000297,-0.00
 000071,0.00000213,-0.00000008,-0.00000077,0.00000046,-0.00000040,-0.00
 000352,0.00000267,-0.00000130,-0.00000114,0.00000099,0.00000437,-0.000
 00296,0.00000671,-0.00000392,0.00000350,-0.00000397,-0.00000129,0.0000
 0114,-0.00000231,-0.00000026,-0.00000128,0.00001014,-0.00000043,0.0000
 0117,-0.00000696,0.00000202,0.00000047,-0.00000385,-0.00000736,0.00001
 604,-0.00000707,0.00000089,-0.00000714,0.00000115,-0.00000565,0.000027
 39,-0.00001117,0.00000123,-0.00006466,0.00002570,-0.00000151,0.0000033
 6,-0.00000379,0.00001590,-0.00000816,-0.00000842,-0.00000265,0.0000087
 5,0.00000039,0.00001756,0.00001888,-0.00001216,-0.00002024,0.00001627,
 0.00000422,-0.00000607,-0.00002427,0.00000404,-0.00007288,-0.00002487,
 0.00002084,-0.00000798,-0.00000471,0.00002611,-0.00000969,0.00002020,-
 0.00001109,-0.00001219,0.00000463,-0.00002663,-0.00002649,0.00000299,-
 0.00000052,0.00002575,0.00001970,-0.00000980,0.00022115,-0.00006949,0.
 00019310,-0.00000472,-0.00000152,0.00000593,-0.00042513,0.00043645,-0.
 00016709,-0.00006344,-0.00146331,-0.00017580,0.00001261,0.00000668,0.0
 0000454,-0.00037724,0.00007600,0.00023127,0.00159827,0.00016727,0.0072
 5936,-0.00020835,0.00088609,-0.00013825,-0.00890753,-0.01924443,0.0033
 1522,0.00433147,-0.00065449,0.00326895,-0.00047162,0.00016313,-0.00047
 082,-0.18466859,-0.14605664,0.05693018,-0.00154619,0.00176354,-0.00260
 784,0.00631709,0.00323731,0.00060333,0.00002243,0.00023771,-0.00007018
 ,0.18578647,-0.00000695,0.00000150,0.00000291,-0.00000172,0.00000008,0
 .00000017,-0.00000467,0.00000063,0.00000068,0.00002615,-0.00000707,0.0
 0001777,-0.00000558,0.00000106,-0.00001274,0.00000975,-0.00000183,0.00
 000207,0.00000137,-0.00000053,-0.00000075,0.00000012,-0.00000044,0.000
 00260,0.00000117,-0.00000071,0.00000069,0.00002077,-0.00000153,-0.0000
 1148,-0.00001337,0.00000193,0.00000363,-0.00001254,0.00000092,0.000009
 34,0.00001820,-0.00000318,0.00000610,-0.00000680,0.00000141,-0.0000039
 3,-0.00001067,0.00000206,-0.00000052,-0.00001782,0.00001815,-0.0000076
 0,0.00000033,-0.00000539,-0.00000782,-0.00002333,0.00001790,-0.0000016
 4,0.00004305,-0.00002764,-0.00000684,-0.00000892,0.00000270,0.00000152
 ,0.00000557,-0.00000017,-0.00000509,-0.00000239,0.00000220,0.00000186,
 -0.00000752,0.00000138,0.00000161,-0.00000272,0.00000509,0.00000190,0.
 00000606,-0.00000656,-0.00000318,0.00000821,-0.00000439,-0.00000366,0.
 00000476,-0.00000808,0.00001133,-0.00000998,0.00000252,-0.00000142,0.0
 0000436,0.00000285,-0.00000549,-0.00000573,-0.00000001,0.00000052,0.00
 000109,-0.00000018,-0.00000072,0.00006013,-0.00001068,0.00001632,0.000
 01105,-0.00000167,0.00000378,-0.00011234,0.00000146,0.00004327,0.00032
 130,0.00034735,-0.00015225,-0.00006492,0.00003480,0.00004114,0.0001199
 7,-0.00001856,-0.00004911,-0.00041216,0.00228516,-0.00320884,0.0010045
 5,-0.00016231,-0.00060751,0.00537890,0.00916025,-0.00296360,-0.0004060
 9,-0.00357350,-0.00564623,0.00018668,-0.00011153,0.00030384,-0.1457679
 8,-0.22923898,0.04638384,0.00094438,0.00011842,0.00187983,-0.02169486,
 -0.01492388,0.01045875,-0.00096223,-0.00097565,0.00055826,0.15975943,0
 .23664821,0.00000442,-0.00000111,-0.00000354,0.00000275,-0.00000009,0.
 00000107,0.00000244,-0.00000060,-0.00000200,-0.00001503,0.00000540,-0.
 00000886,0.00000133,-0.00000110,0.00000655,-0.00000595,0.00000113,-0.0
 0000049,-0.00000075,0.00000045,0.00000105,0.00000022,0.00000095,-0.000
 00109,-0.00000132,0.00000065,0.00000019,-0.00000656,0.00000267,0.00001
 636,0.00000354,-0.00000288,-0.00000834,0.00000574,-0.00000108,-0.00000
 866,-0.00001248,0.00000283,0.00000323,0.00000398,-0.00000122,-0.000002
 47,0.00000874,-0.00000193,-0.00000262,0.00001080,-0.00001427,0.0000054
 3,0.00000098,0.00000542,0.00000831,0.00001633,-0.00002051,0.00000089,-
 0.00002781,0.00003326,-0.00000500,0.00000846,-0.00000320,0.00000110,-0
 .00000774,0.00000534,0.00000624,0.00000261,-0.00000484,-0.00000166,0.0
 0000823,-0.00000491,0.00000286,0.00000825,-0.00000684,0.00000131,0.000
 01125,0.00001041,-0.00000432,0.00001293,0.00001168,0.00000480,0.000004
 63,0.00001511,0.00002095,-0.00000242,-0.00001245,0.00000399,-0.0000022
 7,0.00000644,0.00000801,0.00000985,-0.00000528,0.00000093,-0.00000975,
 -0.00000908,0.00000020,-0.00010319,0.00000565,-0.00005888,-0.00000590,
 -0.00000446,-0.00000895,0.00000533,-0.00016164,0.00014037,0.00045098,0
 .00119609,0.00007908,-0.00000076,-0.00003704,-0.00005140,0.00021220,0.
 00001290,-0.00037396,0.00709272,-0.00319942,0.00046704,-0.00001483,-0.
 00068750,-0.00121671,0.01603745,0.02071421,0.00033176,0.00327913,-0.00
 537058,0.00239713,-0.00048331,0.00028783,-0.00044530,0.05690843,0.0458
 6664,-0.07814185,-0.00298906,0.00109429,-0.00170368,-0.01195692,-0.012
 82212,0.01008883,-0.00068286,-0.00063151,0.00018632,-0.06562204,-0.048
 10505,0.06990434,-0.00000556,0.00000098,-0.00000049,0.00000105,-0.0000
 0004,0.00000176,-0.00000418,0.00000020,-0.00000188,0.00002409,-0.00000
 605,0.00001861,-0.00000743,0.00000138,-0.00001265,0.00000775,-0.000001
 37,0.00000341,0.00000076,-0.00000030,0.00000027,0.00000060,-0.00000044
 ,0.00000342,-0.00000036,0.00000002,0.00000148,0.00001851,-0.00000049,0
 .00000378,-0.00001310,0.00000142,-0.00000413,-0.00000914,0.00000037,0.
 00000190,0.00000888,-0.00000053,0.00001609,-0.00000438,0.00000004,-0.0
 0001090,-0.00000280,0.00000024,-0.00000528,-0.00001594,0.00001681,-0.0
 0000885,0.00000090,-0.00000527,-0.00000219,-0.00001747,0.00001840,-0.0
 0000646,0.00002922,-0.00003521,0.00000504,-0.00000568,0.00000414,-0.00
 000163,0.00000735,-0.00000325,-0.00000561,-0.00000191,0.00000326,0.000
 00171,-0.00000247,0.00000598,-0.00000435,-0.00000566,0.00000785,0.0000
 0324,0.00000407,-0.00001081,-0.00000338,-0.00000363,-0.00000456,0.0000
 0921,0.00000936,-0.00000278,0.00001503,-0.00001654,0.00000788,-0.00000
 500,0.00000270,0.00000101,-0.00000105,-0.00001311,0.00000177,-0.000001
 20,0.00001075,0.00000559,-0.00000497,0.00010926,-0.00001792,0.00008559
 ,0.00002290,-0.00001712,0.00001208,-0.00019642,0.00025877,0.00001206,-
 0.00035799,0.00007382,-0.00050328,0.00002143,-0.00006901,-0.00006155,0
 .00000933,-0.00001515,-0.00003083,-0.00019573,-0.00041716,-0.00078432,
 0.00189438,-0.00563611,0.00395208,0.00466693,-0.00161501,0.00251658,-0
 .00834613,0.00642061,0.01647981,-0.00073105,0.00028736,0.00072459,0.00
 453279,-0.00184227,-0.00039419,-0.00005115,-0.00007305,-0.00015279,-0.
 19943630,0.02386904,0.15810983,-0.00157273,0.00107559,-0.00284342,-0.0
 0150661,0.00162216,-0.00216559,0.20114023,0.00000119,-0.00000018,0.000
 00069,-0.00000059,0.00000010,-0.00000063,0.00000098,-0.00000007,0.0000
 0093,-0.00000587,0.00000153,-0.00000524,0.00000202,-0.00000079,0.00000
 318,-0.00000139,0.00000032,-0.00000104,0.00000003,0.00000020,-0.000000
 19,-0.00000027,0.00000037,-0.00000108,0.00000052,0.00000026,-0.0000004
 5,-0.00000343,0.00000032,-0.00000303,0.00000283,-0.00000055,0.00000178
 ,0.00000140,-0.00000021,0.00000074,0.00000004,0.00000025,-0.00000486,0
 .00000026,-0.00000034,0.00000333,-0.00000090,-0.00000008,0.00000183,0.
 00000375,-0.00000426,0.00000160,-0.00000005,0.00000134,-0.00000003,0.0
 0000715,-0.00000277,-0.00000041,-0.00001203,0.00000354,0.00000530,-0.0
 0000039,0.00000152,-0.00000118,-0.00000238,0.00000008,0.00000236,0.000
 00083,0.00000009,0.00000061,-0.00000039,0.00000760,-0.00000510,0.00000
 319,-0.00000150,0.,-0.00000976,0.00000676,0.00000351,-0.00000947,-0.00
 000305,0.00001487,-0.00000839,0.00001226,-0.00002211,0.00001449,-0.000
 00094,0.00000088,0.00000618,-0.00000244,0.00000691,0.00000645,0.000000
 24,-0.00000051,0.00000178,-0.00000108,-0.00000388,-0.00007530,-0.00001
 917,-0.00007226,-0.00000324,-0.00000034,0.00001531,0.00010283,0.000061
 92,-0.00003110,0.00025651,-0.00010787,0.00029159,-0.00001440,0.0000750
 6,0.00009253,0.00011371,0.00005127,-0.00006039,-0.00052355,-0.00154990
 ,0.00009813,-0.00543290,-0.00270604,-0.00052887,-0.00189204,-0.0045086
 4,-0.00461297,-0.01827864,0.01054152,0.02014900,-0.00091940,0.00022393
 ,0.00103968,0.02273345,0.00287207,-0.02292744,0.00113282,-0.00016467,-
 0.00112439,0.02406869,-0.07616616,-0.03742390,0.00188047,0.00032545,0.
 00088069,0.00076118,0.00043185,0.00182553,-0.02390724,0.07061928,0.000
 00852,-0.00000187,-0.00000412,0.00000261,-0.00000017,0.00000015,0.0000
 0564,-0.00000078,-0.00000135,-0.00003161,0.00000865,-0.00002102,0.0000
 0619,-0.00000115,0.00001512,-0.00001183,0.00000220,-0.00000207,-0.0000
 0170,0.00000056,0.00000109,-0.00000009,0.00000058,-0.00000290,-0.00000
 169,0.00000082,-0.00000053,-0.00002525,0.00000182,0.00001635,0.0000160
 1,-0.00000240,-0.00000562,0.00001560,-0.00000102,-0.00001247,-0.000023
 00,0.00000395,-0.00000465,0.00000833,-0.00000166,0.00000287,0.00001407
 ,-0.00000260,-0.00000057,0.00002164,-0.00002246,0.00000929,-0.00000039
 ,0.00000677,0.00001022,0.00002944,-0.00002323,0.00000161,-0.00005309,0
 .00003304,0.00000683,0.00000853,-0.00000361,0.00000004,-0.00000840,0.0
 0000069,0.00000577,0.00000266,-0.00000295,-0.00000232,0.00001001,0.000
 00141,-0.00000398,0.00000593,-0.00000661,-0.00000151,-0.00000763,0.000
 01110,0.00000174,-0.00001389,0.00000222,0.00000666,-0.00000381,0.00001
 533,-0.00001381,0.00001125,-0.00000292,0.00000086,-0.00000412,0.000004
 64,0.00001018,0.00000822,-0.00000265,0.00000008,-0.00000436,-0.0000025
 9,0.00000029,-0.00006030,0.00002363,0.00000170,0.00001410,-0.00000767,
 -0.00000373,0.00008534,0.00008780,0.00005900,-0.00051703,0.00023030,-0
 .00046339,0.00000485,-0.00011629,-0.00007828,0.00000883,-0.00003083,-0
 .00000479,-0.00086148,0.00009934,0.00005319,0.00400789,-0.00030039,0.0
 0496185,0.00266173,-0.00485552,0.00316197,0.00433317,-0.00358524,-0.00
 048041,0.00009387,-0.00012248,-0.00027243,0.01188109,0.00078591,-0.005
 89704,0.00044335,0.00003111,-0.00058309,0.15792424,-0.03734565,-0.2184
 5682,-0.00246887,0.00164276,-0.00190660,-0.00256527,0.00104804,-0.0016
 3897,-0.17496802,0.04239274,0.22153982,0.00028349,-0.00023034,-0.00149
 012,0.00117636,0.00010017,0.00125078,-0.00232728,0.00096808,0.00055536
 ,0.00618141,-0.00416616,0.00410811,0.00095822,0.00085254,-0.00020491,-
 0.00129763,0.00059678,-0.00035616,-0.00004382,-0.00003436,0.00004473,-
 0.00024575,-0.00108275,-0.00068196,-0.00006669,-0.00002875,-0.00004082
 ,0.00107350,-0.00018720,0.00007493,-0.00079292,0.00033164,-0.00018935,
 -0.00055341,-0.00004637,0.00006444,-0.00000002,-0.00008136,-0.00003574
 ,0.00004855,0.00000325,-0.00004149,0.00012981,0.00000134,0.00002447,-0
 .01376076,-0.02838162,0.01534994,-0.00003294,-0.00157173,-0.00031453,-
 0.07955386,-0.03557713,0.03713938,0.00829457,0.03278850,-0.01458422,-0
 .00191967,0.00215287,0.00660718,-0.00023942,-0.00057689,-0.00005668,-0
 .00011687,0.00004016,0.00017379,-0.00068903,0.00201074,-0.00526499,-0.
 00064824,-0.00085117,0.00150137,-0.00077212,-0.00009658,0.00066077,0.0
 0017994,-0.00036005,0.00079349,-0.00001454,-0.00007624,-0.00003677,0.0
 0001563,-0.00000740,-0.00009723,0.00034248,0.00140070,-0.00172913,0.00
 002730,-0.00001363,0.00003270,-0.00029739,0.00040414,0.00057254,0.0004
 8459,0.00011610,-0.00063049,-0.00005335,-0.00018185,0.00011744,-0.0001
 6916,-0.00016161,0.00005683,0.00002394,0.00007334,-0.00001146,-0.00000
 235,-0.00000175,-0.00000043,-0.00000699,-0.00004405,0.00000286,0.00000
 423,-0.00001402,-0.00000895,0.00000392,0.00000681,-0.00000522,0.000003
 98,0.00001912,0.00002860,-0.00000442,-0.00000575,-0.00000077,-0.000000
 57,-0.00000814,0.00000068,-0.00000082,-0.00001176,0.00000148,-0.000009
 14,-0.00000280,-0.00001266,-0.00000437,0.00000117,0.00000569,0.0000007
 1,-0.00000241,-0.00000082,-0.00000749,0.00000180,0.00000279,0.00000021
 ,-0.00000075,-0.00000131,0.08439818,-0.00022689,0.00000071,0.00033703,
 -0.00008949,-0.00001331,-0.00060324,0.00071901,-0.00045852,0.00003304,
 -0.00218111,0.00090886,-0.00108476,-0.00095212,-0.00028621,0.00090758,
 0.00056074,-0.00017877,-0.00014699,-0.00000314,0.00003145,0.00002533,0
 .00013606,0.00000829,-0.00071689,-0.00000168,0.00004412,-0.00001680,0.
 00006804,0.00016026,0.00017288,0.00012249,-0.00030187,-0.00022666,0.00
 007746,-0.00000089,-0.00016137,-0.00008549,0.00009241,-0.00003543,0.00
 006866,-0.00004244,0.00002226,0.00011662,-0.00004408,-0.00000144,-0.00
 272843,0.00726428,0.00116547,0.00028018,0.00083541,-0.00012072,-0.0284
 9352,-0.41503733,0.14728435,0.00035152,-0.02580701,0.00868233,0.003221
 01,0.00405224,0.00156483,0.00002047,-0.00123442,0.00039186,-0.00024193
 ,0.00039076,0.00000025,-0.00306251,0.00137169,-0.00167515,0.00074002,0
 .00111590,-0.00038615,-0.00058155,0.00009740,0.00047365,0.00012617,-0.
 00052778,-0.00048184,-0.00010078,0.00011387,0.00008437,0.00007597,0.00
 002622,-0.00003004,0.00037176,-0.00018782,-0.00032066,-0.00001229,-0.0
 0003864,-0.00002865,-0.00009963,0.00008815,-0.00005093,0.00006501,-0.0
 0003477,0.00031023,-0.00001673,0.00007354,-0.00005641,-0.00034047,0.00
 032412,-0.00021260,0.00026311,-0.00022890,0.00005678,-0.00003517,0.000
 01378,-0.00000964,-0.00002111,0.00002945,0.00000668,-0.00002450,0.0000
 2580,-0.00003287,-0.00003512,-0.00001419,0.00000426,-0.00001686,0.0000
 1654,0.00000288,-0.00000272,-0.00001034,-0.00000483,0.00000708,-0.0000
 1281,0.00000206,0.00001034,0.00002411,-0.00000846,0.00002837,0.0000073
 2,0.00000847,-0.00000415,-0.00000267,0.00000413,0.00000001,0.00000433,
 0.00000672,-0.00000454,-0.00000541,0.00000584,-0.00000355,0.00000188,0
 .00000736,0.03193539,0.42734531,0.00083490,-0.00023539,-0.00079329,0.0
 0061461,-0.00004296,0.00084736,-0.00056797,0.00002716,-0.00024141,-0.0
 0047665,-0.00071493,0.00065359,0.00081628,0.00048728,0.00099742,-0.001
 14534,0.00033975,-0.00041954,-0.00002217,0.00001837,0.00005177,-0.0003
 7419,-0.00089545,-0.00042183,-0.00005053,-0.00002047,-0.00002494,0.000
 58009,0.00018265,0.00118043,-0.00049244,-0.00042630,-0.00060713,-0.000
 09643,0.00001834,-0.00038620,-0.00063479,0.00005817,-0.00028973,0.0002
 1571,-0.00001268,0.00013684,0.00039606,-0.00006157,0.00001237,0.007294
 35,0.01531402,-0.01042227,0.00117939,0.00263604,-0.00070894,0.03688887
 ,0.14507880,-0.10065160,-0.00586522,-0.00443899,0.00522862,0.00640377,
 0.00261886,0.00978836,-0.00077274,-0.00298357,0.00051122,-0.00014892,0
 .00028625,-0.00024313,-0.00211468,-0.00566155,-0.00478053,0.00083191,0
 .00077512,-0.00029309,-0.00107519,0.00067934,0.00026292,0.00105311,0.0
 0138448,0.00014201,0.00015234,-0.00042096,-0.00026934,-0.00005002,-0.0
 0013327,-0.00010966,0.00007289,0.00148484,-0.00096968,0.00007407,-0.00
 008608,-0.00022323,-0.00016227,0.00015314,0.00024614,-0.00014922,-0.00
 033136,0.00003576,0.00008261,-0.00000804,-0.00000312,0.00023046,-0.000
 06447,-0.00016179,-0.00018184,0.00017705,-0.00000482,-0.00000258,-0.00
 000490,-0.00000402,0.00000247,-0.00000821,0.00000313,0.00000331,-0.000
 01499,0.00001705,0.00002788,0.00001118,-0.00001315,0.00000900,-0.00000
 037,-0.00000741,-0.00000019,0.00000767,0.00000056,-0.00000337,0.000007
 44,0.00000463,-0.00000758,-0.00001741,-0.00000165,-0.00001502,-0.00000
 994,0.00000107,0.00000300,0.00000181,-0.00000785,0.00000368,-0.0000068
 4,-0.00000437,0.00000630,0.00000372,0.00000041,0.00000641,-0.00000266,
 -0.00000421,-0.04337413,-0.15514810,0.10194623\\-0.00001027,0.00000139
 ,-0.00000964,0.00000876,-0.00000147,0.00000081,-0.00000545,0.00000214,
 0.00001516,0.00000246,-0.00000328,-0.00001064,0.00000275,-0.00000008,0
 .00000353,0.00000203,-0.00000021,0.00000326,0.00000005,0.00000017,-0.0
 0000032,-0.00000067,0.00000031,-0.00000055,0.00000016,0.00000016,0.000
 00017,0.00000145,-0.00000275,-0.00000114,-0.00000582,0.00000086,0.0000
 0062,0.00000097,0.00000136,-0.00000079,0.00000023,-0.00000207,0.000001
 60,-0.00000442,0.00000220,0.00000790,0.00000402,-0.00000058,-0.0000087
 4,-0.00000176,0.00000649,0.00000135,0.00000469,-0.00000274,-0.00000401
 ,0.00000490,-0.00000203,0.00000101,0.00000452,0.00000343,0.00001010,-0
 .00000273,-0.00000277,-0.00000485,-0.00000145,0.00000288,0.00000006,-0
 .00000106,-0.00000019,-0.00000076,-0.00000153,-0.00000058,-0.00000706,
 -0.00000124,-0.00000073,-0.00000064,-0.00000241,-0.00000030,0.00000151
 ,0.00000469,0.00000215,-0.00000093,-0.00000148,0.00000051,-0.00000105,
 0.00000011,-0.00000053,0.00000039,0.00000169,-0.00000215,0.00000368,0.
 00000031,0.00000002,-0.00000035,-0.00000170,0.00000021,-0.00000105,-0.
 00000812,-0.00000095,-0.00000880,0.00000161,0.00000129,0.00000369,0.00
 000383,0.00000112,0.00000656,0.00000456,-0.00000614,-0.00000220,0.0000
 0050,0.00000017,0.00000002,-0.00000067,0.00000209,-0.00000093,-0.00000
 140,0.00000289,0.00000121,0.00000013,-0.00000140,0.00000090,-0.0000006
 0,0.00000035,-0.00000093,-0.00000035,0.00000005,0.00000101,-0.00000037
 ,0.00000025,-0.00000022,-0.00000015,-0.00000092,-0.00000016,0.00000017
 ,-0.00000011,0.00000024,0.00000055,0.00000064,0.00000083,0.00000005,-0
 .00000011,-0.00000026,0.00000014,0.00000023,-0.00000008,-0.00000015,-0
 .00000007,-0.00000048,-0.00000154,-0.00000120,0.00000097\\\@


 IT IS A QUALITY OF REVOLUTIONS NOT TO GO BY OLD LINES OR OLD LAWS,
 BUT TO BREAK UP BOTH, AND MAKE NEW ONES.
                                              -- A. LINCOLN (1848)
 Job cpu time:  0 days 17 hours 28 minutes 25.3 seconds.
 File lengths (MBytes):  RWF=   2255 Int=      0 D2E=      0 Chk=     36 Scr=      1
 Normal termination of Gaussian 03 at Thu May 13 10:48:57 2010.
